3D Voronoi FCC Cu polycrystal

78083 atoms

2 atom types

0.0 100.0000000000 xlo xhi
0.0 100.0000000000 ylo yhi
0.0 100.0000000000 zlo zhi

Masses

1 63.546
2 58.693

Atoms # atomic

1 1 0.0004497187 89.3334646627 85.6296623818
2 1 0.0045719525 72.8090802086 28.7047208930
3 1 0.0059675554 48.7479404958 19.0054868367
4 1 0.0072383705 24.1357516593 10.2015794169
5 1 0.0086545635 81.7336563281 4.9556622513
6 1 0.0100295762 76.0134722339 90.8031113045
7 1 0.0101349693 84.1880430929 65.3488813178
8 1 0.0114251791 51.9523325212 81.1038772483
9 1 0.0118816553 63.5016179368 17.1258794647
10 1 0.0125331501 34.1368774013 57.7097396080
11 1 0.0125450910 7.9171335803 60.3665395356
12 1 0.0132772581 39.4404782240 7.4266454085
13 1 0.0155059026 12.8259071099 81.1529776686
14 1 0.0198382190 81.4791756212 41.0524424175
15 1 0.0208727742 62.5841112364 31.7040181725
16 1 0.0222683771 38.5229715237 22.0047841162
17 1 0.0236639799 14.4618318110 12.3055500600
18 1 0.0237107475 5.2260987753 0.4789775381
19 1 0.0259987094 54.7902669700 56.8850797311
20 1 0.0264551856 66.3395523855 92.9070819476
21 1 0.0278507884 42.2784126728 83.2078478913
22 1 0.0319155923 97.6262904408 19.8049774077
23 1 0.0333959981 0.0806772056 80.1981964741
24 1 0.0372983836 52.9101913881 33.8079888155
25 1 0.0382375103 17.2997662598 88.0867525429
26 1 0.0386939864 28.8490516753 24.1087547593
27 1 0.0410287160 69.1774868343 68.6882844304
28 1 0.0420818699 91.5125888714 1.0248514663
29 1 0.0421742201 49.2030763882 50.5990551481
30 1 0.0424243188 45.1163471216 58.9890503742
31 1 0.0428807950 56.6656325372 95.0110525906
32 1 0.0435622757 93.9669756362 61.4180705327
33 1 0.0440242805 92.5859707912 27.1543400631
34 1 0.0442763978 32.6044928245 85.3118185344
35 1 0.0445481725 26.5172912482 58.5745484846
36 1 0.0471729268 13.7867306005 41.9491413666
37 1 0.0478098931 28.4825940988 37.7915668306
38 1 0.0517671205 86.3671673016 80.7440704023
39 1 0.0537239930 43.2362715397 35.9119594586
40 1 0.0551195958 19.1751318270 26.2127254024
41 1 0.0574543253 59.5035669860 70.7922550735
42 1 0.0579108015 71.0528524015 6.8142572899
43 1 0.0593064043 46.9917126888 97.1150232337
44 1 0.0607496783 88.3346350309 36.3849366819
45 1 0.0614523711 81.2217457319 60.4632893383
46 1 0.0638624929 4.9508362193 55.4809475561
47 1 0.0642355025 18.8086742504 39.8955374737
48 1 0.0653428987 7.4052229841 15.8741666226
49 1 0.0668233045 9.8596097489 76.2673856891
50 1 0.0696931262 22.0130662758 1.9939278852
51 1 0.0715452052 9.5012119786 28.3166960455
52 1 0.0724843318 73.8907868503 82.5954597728
53 1 0.0738799347 49.8296471376 72.8962257166
54 1 0.0743364109 61.3789325532 8.9182279330
55 1 0.0750281493 2.2598014143 95.5933855586
56 1 0.0757320137 37.3177928405 99.2189938768
57 1 0.0804871433 89.1510412927 45.5651629181
58 1 0.0830721525 3.4750789459 41.4442693712
59 1 0.0832329941 94.6599930797 14.9193854282
60 1 0.0834523175 61.0124749766 22.6010400043
61 1 0.0842666565 24.8510007246 77.7751303681
62 1 0.0847133999 97.1143798445 75.3126044946
63 1 0.0848479204 36.9513352639 12.9018059481
64 1 0.0889099412 64.2168670020 84.6994304159
65 1 0.0893664174 75.7661524175 20.7214326323
66 1 0.0895477967 67.5128275909 50.9011009962
67 1 0.0903055441 40.1557272893 75.0001963596
68 1 0.0907620202 51.7050127048 11.0221985761
69 1 0.0921576231 27.6438729921 1.3229645199
70 1 0.0933992717 88.5462915104 96.1392594868
71 1 0.0948796775 91.0006782752 56.5324785532
72 1 0.0983575364 74.8486457172 35.2995713401
73 1 0.0997531392 50.7875060045 25.6003372838
74 1 0.1011487421 26.7263662918 15.9011032276
75 1 0.1030845224 83.4008699406 75.8584784228
76 1 0.1034834716 67.0548014508 60.4806328987
77 1 0.1053355506 54.5429471536 86.8034010589
78 1 0.1067311534 30.4818074409 77.1041670027
79 1 0.1084554557 12.0387339576 91.6625747735
80 1 0.1088690459 50.4210484279 39.2831493551
81 1 0.1109993424 35.2427091775 48.5603733462
82 1 0.1127697730 78.2554483708 55.5776973588
83 1 0.1147831457 65.1747258689 37.4035419831
84 1 0.1151798947 1.9845388582 50.5953555766
85 1 0.1161787486 41.1135861561 27.7043079269
86 1 0.1166603005 4.4389256231 10.9885746431
87 1 0.1175743514 17.0524464434 18.0050738707
88 1 0.1181407063 6.8933123879 71.3817937096
89 1 0.1197677088 77.2890260204 44.0521828762
90 1 0.1199090809 57.3808816024 62.5846035418
91 1 0.1203655571 68.9301670180 98.6066057582
92 1 0.1217611600 44.8690273053 88.9073717020
93 1 0.1251561345 11.3541949030 38.2506246098
94 1 0.1252946552 40.7471285796 41.3871199982
95 1 0.1263455512 99.2935040533 90.7077935791
96 1 0.1321478818 19.8903808922 93.7862763535
97 1 0.1326043580 31.4396663078 29.8082785700
98 1 0.1349390875 71.7681014668 74.3878082411
99 1 0.1350314230 90.7254157191 11.5344485712
100 1 0.1363346903 47.7069617541 64.6885741849
101 1 0.1365118288 93.1798024840 71.9276676377
102 1 0.1367911665 59.2562471696 0.7105764013
103 1 0.1381867693 35.1951074569 91.0113423451
104 1 0.1387328860 85.9020993334 32.6864199251
105 1 0.1419596215 4.3706484014 26.2127325384
106 1 0.1430143648 27.6231230243 49.4251822228
107 1 0.1447166736 85.5799941494 91.2536675073
108 1 0.1461970794 88.0343809142 51.6468865737
109 1 0.1467214121 22.7283153410 69.5674788364
110 1 0.1490299673 21.7657464594 31.9122492130
111 1 0.1508230798 41.7199511034 47.1836055920
112 1 0.1513646968 62.0941816184 76.4917788842
113 1 0.1515680128 16.6722449312 67.4509829245
114 1 0.1518211730 73.6434670340 12.5137811006
115 1 0.1527602997 38.0330419057 66.7925448279
116 1 0.1532167758 49.5823273213 2.8145470444
117 1 0.1544019242 80.4345725796 70.9728864433
118 1 0.1546123787 25.5211876086 93.1153129881
119 1 0.1563951605 6.2693360071 31.0671877032
120 1 0.1568120460 4.1636630670 65.9905446611
121 1 0.1584703510 86.7185055952 41.8666461614
122 1 0.1597728576 9.0724365966 86.7769827940
123 1 0.1609370796 73.2770094574 26.1965931719
124 1 0.1610553602 1.0425432485 37.7457526144
125 1 0.1623326825 49.2158697447 16.4973591157
126 1 0.1636034977 24.6036809082 7.6934516959
127 1 0.1663947034 76.4814014828 88.2949835835
128 1 0.1677903062 52.4202617701 78.5957495272
129 1 0.1679777024 1.4726282620 6.1029826636
130 1 0.1682467824 63.9695471856 14.6177517437
131 1 0.1696423852 39.9084074729 4.9185176874
132 1 0.1737383794 70.2624763647 43.3002149579
133 1 0.1750293871 20.0035368712 50.2899910994
134 1 0.1772379014 63.0520404853 29.1958904514
135 1 0.1776629530 96.3272066922 85.8222015996
136 1 0.1787582919 39.5419498964 18.6013297588
137 1 0.1800291070 14.9297610599 9.7974223390
138 1 0.1823638366 55.2581962189 54.3769520101
139 1 0.1827937426 41.4699344911 54.3129160847
140 1 0.1828203127 66.8074816344 90.3989542265
141 1 0.1842159156 42.7463419217 80.6997201703
142 1 0.1860679946 30.2344876246 7.0224883305
143 1 0.1863488248 87.7591183581 6.6488565917
144 1 0.1878292306 90.2135051229 67.0420756582
145 1 0.1902393524 13.9425956103 62.0597338760
146 1 0.1936635107 53.3781206369 31.2998610945
147 1 0.1950591136 29.3169809242 21.6006270383
148 1 0.1960340754 82.6136967883 86.3680755277
149 1 0.1973938431 69.6454160832 66.1801567094
150 1 0.1992459221 57.1335617861 92.5029248696
151 1 0.2006415249 33.0724220733 82.8036908134
152 1 0.2014050088 11.2515608054 2.1721718785
153 1 0.2057193261 77.4682752185 66.0872944638
154 1 0.2081294478 1.1973657060 61.1049526816
155 1 0.2100891201 43.7042007886 33.4038317376
156 1 0.2110902594 6.1061392356 81.8913908145
157 1 0.2114847229 19.6430610759 23.7045976813
158 1 0.2138194524 59.9714962349 68.2841273524
159 1 0.2142759286 71.5207816504 4.3061295689
160 1 0.2148087649 33.8503483379 55.1777249612
161 1 0.2156715315 47.4596419377 94.6068955127
162 1 0.2178094239 67.3988829247 56.7858778651
163 1 0.2192951042 98.5063309010 1.2173906841
164 1 0.2206006296 19.2766034993 37.3874097527
165 1 0.2210832801 72.1168929555 55.6441712635
166 1 0.2228768072 9.7380654674 43.7323340893
167 1 0.2259642111 88.3759156409 28.5125267191
168 1 0.2260582533 22.4809955247 99.4858001642
169 1 0.2265147295 34.0302809402 35.5078023806
170 1 0.2279103323 9.9691412275 25.8085683244
171 1 0.2288494590 74.3587160992 80.0873320517
172 1 0.2294613819 92.3926293317 82.4372647427
173 1 0.2302450618 50.2975763865 70.3880979955
174 1 0.2307015380 61.8468618021 6.4101002120
175 1 0.2320971408 37.7857220894 96.7108661557
176 1 0.2361078129 58.2455901122 47.8307016704
177 1 0.2364535587 84.2859698977 38.1681294046
178 1 0.2376662267 84.7928209971 1.7632646122
179 1 0.2390385679 98.6100075510 34.0472358577
180 1 0.2391466325 87.2472077619 62.1564836787
181 1 0.2398174446 61.4804042255 20.0929122833
182 1 0.2406317836 25.3189299734 75.2670026470
183 1 0.2415567543 10.9762982493 57.1741418965
184 1 0.2426363091 76.1042808365 49.6425178086
185 1 0.2444498349 48.9165473248 48.0670405013
186 1 0.2445175659 15.8850717789 77.9605800295
187 1 0.2452750683 64.6847962509 82.1913026948
188 1 0.2457315445 76.2340816664 18.2133049113
189 1 0.2466706712 40.6236565381 72.4920686386
190 1 0.2468237873 26.2307621848 56.0425338378
191 1 0.2471271474 52.1729419537 8.5140708550
192 1 0.2473514773 79.6473994273 81.4824835482
193 1 0.2485227502 28.1118022410 98.8148367988
194 1 0.2527224107 8.2852634443 97.2865798990
195 1 0.2547226635 75.3165749661 32.7914436190
196 1 0.2561910236 85.1023761595 47.3483556408
197 1 0.2562430540 51.8064843772 22.1968829264
198 1 0.2570367279 74.5019778575 61.2017024843
199 1 0.2575138692 27.1942955407 13.3929755066
200 1 0.2587760329 99.4264138128 43.2274620939
201 1 0.2594468497 98.2310683449 56.2193607021
202 1 0.2609272555 0.6854551097 16.6125797686
203 1 0.2617006777 55.0108764025 84.2952733379
204 1 0.2624076613 3.1398418745 77.0057988350
205 1 0.2630962806 30.9497366898 74.5960392817
206 1 0.2635527567 42.4990221054 10.6180414981
207 1 0.2706125061 95.5400335400 96.3317987046
208 1 0.2711482729 65.6426551177 34.8954142621
209 1 0.2725438757 41.5815154050 25.1961802059
210 1 0.2739394785 17.5203756923 15.4969461496
211 1 0.2762742081 57.8488108513 60.0764758207
212 1 0.2767306842 69.3980962669 96.0984780372
213 1 0.2781262871 45.3369565541 86.3992439810
214 1 0.2788388097 18.6111760316 56.9073427144
215 1 0.2792983779 86.9719452058 17.1584536967
216 1 0.2807787837 89.4263319706 77.5516727632
217 1 0.2816597823 41.2150578285 38.8789922772
218 1 0.2875738822 55.9687352694 36.9993849052
219 1 0.2885130089 20.3583101411 91.2781486325
220 1 0.2889694851 31.9075955567 27.3001508489
221 1 0.2889836285 81.8265236360 96.8776726327
222 1 0.2904640343 84.2809104008 57.2708916992
223 1 0.2913042146 72.2360307157 71.8796805200
224 1 0.2926998174 48.1748910029 62.1804464638
225 1 0.2928741561 8.0100008883 52.2885499170
226 1 0.2931562936 59.7241764185 98.2024486803
227 1 0.2945518964 35.6630367058 88.5032146240
228 1 0.2958349677 12.9187744179 73.0749880500
229 1 0.2966069797 69.0777311807 48.8905498903
230 1 0.2980853917 31.5411379801 40.9829629202
231 1 0.2986688791 76.6811020663 76.5968915687
232 1 0.3040398125 5.3189660833 92.4009879195
233 1 0.3053950944 22.2336757083 29.4041214920
234 1 0.3077298240 62.5621108673 73.9836511631
235 1 0.3081863001 74.1113962829 10.0056533796
236 1 0.3091254268 38.5009711546 64.2844171069
237 1 0.3095819030 50.0502565701 0.3064193233
238 1 0.3109775058 25.9891168574 90.6071852671
239 1 0.3122446573 97.7191577487 11.7269877891
240 1 0.3137250631 0.1735445135 72.1202068555
241 1 0.3173022068 73.7449387063 23.6884654509
242 1 0.3218207038 12.5597558599 31.5080921351
243 1 0.3224109350 91.6054561794 92.9468618476
244 1 0.3227598305 76.9493307317 85.7868558624
245 1 0.3238913408 94.0598429442 53.3400809141
246 1 0.3241554333 52.8881910189 76.0876218062
247 1 0.3246119095 64.4374764345 12.1096240226
248 1 0.3260075123 40.3763367218 2.4103899664
249 1 0.3268268918 78.8539296102 42.0416317703
250 1 0.3306157798 84.0056478448 12.2728617172
251 1 0.3320961856 86.4600346096 72.6660807837
252 1 0.3337278161 64.0710188580 25.7924360939
253 1 0.3341742313 82.6698404621 43.6498388841
254 1 0.3351234190 40.0098791452 16.0932020377
255 1 0.3363942342 15.3976903087 7.2892946179
256 1 0.3367592406 96.9938781154 39.5289453372
257 1 0.3374671190 15.0978986266 88.4701771344
258 1 0.3391854398 67.2754108833 87.8908265055
259 1 0.3405810427 43.2142711706 78.1915924493
260 1 0.3410375189 54.7635565861 14.2135946657
261 1 0.3417814362 81.3146130398 52.3852997197
262 1 0.3424331217 30.7024168734 4.5143606095
263 1 0.3427189351 63.1535121576 40.3705748017
264 1 0.3452899796 27.3365939609 46.8931675760
265 1 0.3456719638 7.4980902920 7.7961770040
266 1 0.3471523696 9.9524770568 68.1893960705
267 1 0.3500286378 53.8460498858 28.7917333734
268 1 0.3506332099 24.8384013453 62.6598854528
269 1 0.3514242407 29.7849101731 19.0924993172
270 1 0.3523964028 97.4438951926 66.7289578071
271 1 0.3537589702 70.1133453321 63.6720289883
272 1 0.3553572144 2.3526687223 87.5153959400
273 1 0.3556110492 57.6014910349 89.9947971486
274 1 0.3570066521 33.5403513222 80.2955630923
275 1 0.3591445445 53.4795923093 42.4745454448
276 1 0.3635620592 94.7528603877 6.8413958096
277 1 0.3664542472 44.1721300375 30.8957040165
278 1 0.3678498501 20.1109903247 21.1964699603
279 1 0.3701845796 60.4394254837 65.7759996314
280 1 0.3706410557 71.9887108993 1.7980018478
281 1 0.3720366586 47.9275711866 92.0987677916
282 1 0.3737283368 88.6391588183 88.0612698681
283 1 0.3741745510 67.8668121736 54.2777501441
284 1 0.3773050020 19.7170078078 47.7579764526
285 1 0.3801866267 95.0775222737 27.6161610100
286 1 0.3805796760 19.7314096002 64.2585852854
287 1 0.3807975624 71.8273799544 41.2896638520
288 1 0.3819331816 81.0393504837 7.3872697377
289 1 0.3824233804 22.9489247735 96.9776724431
290 1 0.3828798566 34.4982101891 32.9996746596
291 1 0.3834135874 83.4937372486 67.7804888042
292 1 0.3842754594 10.4370704764 23.3004406034
293 1 0.3850693574 41.1834054277 51.7809014379
294 1 0.3851137171 33.8138358869 45.5163998218
295 1 0.3852145861 74.8266453481 77.5792043307
296 1 0.3858237092 7.2228277360 62.7981470220
297 1 0.3866101889 50.7655056354 67.8799702745
298 1 0.3870666651 62.3147910509 3.9019724909
299 1 0.3884622680 38.2536513382 94.2027384347
300 1 0.3887845208 12.1316012656 83.5845851549
301 1 0.3969893656 4.5317929310 2.9105850245
302 1 0.3969969108 25.7868592223 72.7588749260
303 1 0.3985806875 5.6894003343 45.5155268120
304 1 0.3993054660 24.8242903407 35.1036453027
305 1 0.4016401955 65.1527254997 79.6831749738
306 1 0.4020966716 76.7020109153 15.7051771902
307 1 0.4030357983 41.0915857870 69.9839409176
308 1 0.4034922745 52.6408712026 6.0059431340
309 1 0.4046419276 61.4791831075 47.8622463705
310 1 0.4048878773 28.5797314899 96.3067090778
311 1 0.4066746162 99.3863713612 82.6298039605
312 1 0.4112073003 96.7946695938 31.5782106138
313 1 0.4112125783 76.3355533388 29.3879892615
314 1 0.4126081811 52.2744136260 19.6887552053
315 1 0.4138789963 27.6622247895 10.8848477855
316 1 0.4147424483 94.5613424179 35.8304285804
317 1 0.4153604880 90.8182830271 3.4564589526
318 1 0.4168408939 93.2726697919 63.8496780191
319 1 0.4170843798 33.5638192746 52.6457103144
320 1 0.4180658048 55.4788056514 81.7871456168
321 1 0.4185222810 67.0280910669 17.8091478333
322 1 0.4192510156 17.0017602793 58.8673362369
323 1 0.4194614077 31.4176659387 72.0879115606
324 1 0.4199178838 42.9669513542 8.1099137771
325 1 0.4205615601 27.7072869708 63.1182161166
326 1 0.4250457387 85.6728614573 83.1756778886
327 1 0.4275134000 66.1105843666 32.3872865410
328 1 0.4289090028 42.0494446539 22.6880524848
329 1 0.4303046057 17.9883049412 12.9888184286
330 1 0.4326393352 58.3167401002 57.5683480997
331 1 0.4330958114 69.8660255157 93.5903503161
332 1 0.4344799132 95.3777486797 45.0106548167
333 1 0.4344914142 45.8048858030 83.8911162599
334 1 0.4347309893 80.5274398875 62.8948968247
335 1 0.4371411110 4.2565303749 57.9125550425
336 1 0.4386215168 6.7109171397 18.3057741090
337 1 0.4401019226 9.1653039046 78.6989931754
338 1 0.4439390094 56.4366645183 34.4912571841
339 1 0.4448781360 20.8262393900 88.7700209114
340 1 0.4453346122 32.3755248055 24.7920231279
341 1 0.4476693417 72.7039599645 69.3715527990
342 1 0.4483067675 1.5654955700 98.0249930450
343 1 0.4490649446 48.6428202518 59.6723187428
344 1 0.4490994022 25.9442331214 53.5105191910
345 1 0.4495214207 60.1921056674 95.6943209592
346 1 0.4496954921 77.6691844262 47.6319667027
347 1 0.4509170236 36.1309659547 85.9950869030
348 1 0.4544505188 32.0090672290 38.4748351992
349 1 0.4565116123 93.9656872354 17.3509929145
350 1 0.4579920181 96.4200740002 77.7442119810
351 1 0.4603646187 46.7627446699 36.5952278272
352 1 0.4617602216 22.7016049572 26.8959937710
353 1 0.4640949511 63.0300401162 71.4755234421
354 1 0.4645514272 74.5793255317 7.4975256585
355 1 0.4654905539 38.9689004035 61.7762893858
356 1 0.4659470301 50.5181858190 97.7982916023
357 1 0.4666778899 87.8519856660 98.5708669731
358 1 0.4673426329 26.4570461063 88.0990575461
359 1 0.4681582957 90.3063724309 58.9640860396
360 1 0.4763631405 82.7065640963 78.2900859091
361 1 0.4781219678 6.8621998840 26.6745534853
362 1 0.4781858309 13.0276851088 28.9999644140
363 1 0.4805205604 53.3561202678 73.5794940851
364 1 0.4809770366 64.9054056834 9.6014963016
365 1 0.4811144246 18.3246469683 54.3753280676
366 1 0.4817340739 11.3444281133 94.0941822599
367 1 0.4823726395 40.8442659707 99.9022622454
368 1 0.4860483911 77.5611425265 58.0093048452
369 1 0.4884585129 1.2902330139 53.0269630630
370 1 0.4899389187 3.7446197787 13.4201821295
371 1 0.4900929433 64.5389481068 23.2843083729
372 1 0.4914193245 6.1990065435 73.8134011959
373 1 0.4914885461 40.4778083941 13.5850743167
374 1 0.4927256560 92.1288067205 32.1319118237
375 1 0.4927593613 15.8656195576 4.7811668969
376 1 0.4955505670 67.7433401322 85.3826987844
377 1 0.4960070431 79.2926255477 21.4047010009
378 1 0.4969461698 43.6822004195 75.6834647282
379 1 0.4974026460 55.2314858350 11.7054669447
380 1 0.4987982488 31.1703461223 2.0062328884
381 1 0.4996241693 98.5991982089 93.1394010655
382 1 0.5036661626 70.6426347705 46.8799987844
383 1 0.5063937650 54.3139791347 26.2836056524
384 1 0.5079141555 30.8038885458 15.6890449597
385 1 0.5083100411 90.0311098748 13.9660560576
386 1 0.5097904469 92.4854966396 74.3592751241
387 1 0.5101240973 70.5812745810 61.1639012673
388 1 0.5119761763 58.0694202838 87.4866694275
389 1 0.5124631209 92.9452129823 41.3121380599
390 1 0.5133717792 34.0082805711 77.7874353713
391 1 0.5150481302 7.2692506356 37.1912445130
392 1 0.5155096716 53.9475215581 39.9664177237
393 1 0.5179952917 84.8856883050 93.6852749936
394 1 0.5185198499 54.8572435751 51.2875685930
395 1 0.5194756976 87.3400750698 54.0784940601
396 1 0.5208938024 32.1714584350 59.2630619294
397 1 0.5214237715 68.7011989990 38.0868103517
398 1 0.5228193743 44.6400592863 28.3875762955
399 1 0.5242149772 20.5789195736 18.6883422393
400 1 0.5248466309 15.9779390869 69.8825904109
401 1 0.5265497067 60.9073547326 63.2678719104
402 1 0.5270061829 72.4566401482 99.2898741268
403 1 0.5276805424 79.7402667352 73.4044939296
404 1 0.5284017857 48.3955004355 89.5906400706
405 1 0.5300906641 3.4693572226 68.4221521475
406 1 0.5319352810 44.2736017098 42.0703883668
407 1 0.5330514757 8.3781307523 89.2085902804
408 1 0.5387885075 23.4168540224 94.4695447221
409 1 0.5392449837 34.9661394380 30.4915469385
410 1 0.5406405865 10.9049997253 20.7923128823
411 1 0.5412563205 0.7783224177 8.5345901500
412 1 0.5415797132 75.2945745970 75.0710766097
413 1 0.5429753161 51.2334348843 65.3718425534
414 1 0.5434317922 62.7827202998 1.3938447699
415 1 0.5448273951 38.7215805871 91.6946107137
416 1 0.5469652875 58.6608215741 53.8735930661
417 1 0.5476910184 88.9687795177 24.1198925011
418 1 0.5509415712 95.6329008479 88.2538090860
419 1 0.5529088247 24.5518722819 60.1278708060
420 1 0.5533620379 26.2547884712 70.2507472050
421 1 0.5556705931 25.2922195896 32.5955175816
422 1 0.5580053226 65.6206547486 77.1750472527
423 1 0.5584617988 77.1699401642 13.1970494692
424 1 0.5594009254 41.5595150359 67.4758131965
425 1 0.5596274430 87.0648125138 9.0804640781
426 1 0.5598574016 53.1088004515 3.4978154130
427 1 0.5611078488 89.5191992786 69.4736831446
428 1 0.5612530044 29.0476607387 93.7985813567
429 1 0.5621265574 90.8674671234 28.9743476659
430 1 0.5635179706 13.2482897660 64.4913413624
431 1 0.5675777054 76.8034825876 26.8798615405
432 1 0.5689733082 52.7423428749 17.1806274843
433 1 0.5693126936 81.9193909440 88.7996830141
434 1 0.5702441234 28.1301540384 8.3767200645
435 1 0.5707930994 84.3737777088 49.1929020806
436 1 0.5744309320 55.9467349003 79.2790178958
437 1 0.5746836270 10.5572549610 4.6037793649
438 1 0.5748874081 67.4960203158 15.3010201122
439 1 0.5758265348 31.8855951875 69.5797838396
440 1 0.5762830110 43.4348806031 5.6017860560
441 1 0.5789979442 76.7739693742 68.5189019501
442 1 0.5795806168 19.4304787444 45.2259618058
443 1 0.5814080660 0.5030598616 63.5365601680
444 1 0.5838785271 66.5785136155 29.8791588200
445 1 0.5843688776 5.4118333912 84.3229983009
446 1 0.5853989176 43.0684230266 19.2845981273
447 1 0.5866697328 18.4562341901 10.4806907075
448 1 0.5873449722 40.8968763643 49.2488867911
449 1 0.5878567453 73.3922835442 39.2791127461
450 1 0.5894609385 70.3339547646 91.0822225951
451 1 0.5904463286 90.5126772848 37.6136213032
452 1 0.5908565413 46.2728150519 81.3829885389
453 1 0.5925737224 97.8120250566 3.6489981705
454 1 0.5927086203 33.7609607548 7.7057566991
455 1 0.6003041365 56.9045937671 31.9831294631
456 1 0.6012432631 21.2941686388 86.2618931904
457 1 0.6016997393 32.8434540544 22.2838954068
458 1 0.6027400000 91.6983234873 84.8688722290
459 1 0.6040344688 73.1718892134 66.8634250780
460 1 0.6054300717 49.1107495007 57.1641910217
461 1 0.6058865478 60.6600349163 93.1861932382
462 1 0.6072821507 36.5988952035 83.4869591819
463 1 0.6101837936 91.3290835466 46.7938475394
464 1 0.6109448448 84.0985151527 4.1948720986
465 1 0.6117011106 63.0440866973 45.8516952646
466 1 0.6124252506 86.5529019175 64.5880911651
467 1 0.6127688029 5.6531211999 42.6729539925
468 1 0.6148353724 10.2819924049 59.6057493829
469 1 0.6167297458 47.2306739188 34.0871001061
470 1 0.6177961840 15.1907659346 80.3921875158
471 1 0.6181253487 23.1695342061 24.3878660499
472 1 0.6193599946 33.2772902112 50.1136956677
473 1 0.6194043543 25.9077206704 43.8491940516
474 1 0.6204600782 63.4979693651 68.9673957210
475 1 0.6206300954 78.9530935829 83.9140910346
476 1 0.6209165544 75.0472547806 4.9893979375
477 1 0.6218556810 39.4368296523 59.2681616648
478 1 0.6223121572 50.9861150679 95.2901638812
479 1 0.6237077601 26.9249753552 85.5909298250
480 1 0.6244500496 70.9253560549 57.4691462337
481 1 0.6260010288 7.5909576000 99.7181873854
482 1 0.6265347629 69.4578895866 52.4703337168
483 1 0.6272412553 22.8030766295 38.0706781212
484 1 0.6327254678 97.5367625006 58.6509681885
485 1 0.6331553552 37.5567540704 36.1910707492
486 1 0.6342058736 99.9911492654 19.0441872549
487 1 0.6345509581 13.4956143577 26.4918366930
488 1 0.6356862794 2.4455360302 79.4374063214
489 1 0.6368856876 53.8240495167 71.0713663641
490 1 0.6373421637 65.3733349323 7.0933685805
491 1 0.6387377666 41.3121952195 97.3941345243
492 1 0.6438911242 94.8457276956 98.7634061910
493 1 0.6464580704 65.0068773557 20.7761806519
494 1 0.6491244884 16.3335488065 2.2730391758
495 1 0.6502261789 61.3753972917 43.8095994586
496 1 0.6513750170 25.6577040580 50.9785045442
497 1 0.6519156941 68.2112693811 82.8745710634
498 1 0.6523721703 79.7605547966 18.8965732798
499 1 0.6533112969 44.1501296683 73.1753370072
500 1 0.6537677731 55.6994150839 9.1973392236
501 1 0.6540574019 88.7320261263 79.9832802495
502 1 0.6548527848 13.5322371570 39.4793092311
503 1 0.6551633760 31.6382753712 99.4981051674
504 1 0.6567546750 79.2340880160 45.6214155968
505 1 0.6591393724 47.1241016780 55.0014295295
506 1 0.6622622467 81.1322177917 99.3092801191
507 1 0.6628836798 55.3329575074 22.8801512949
508 1 0.6637426525 83.5866045565 59.7024991856
509 1 0.6642792826 31.2718177946 13.1809172387
510 1 0.6661527743 7.3156950439 54.7201574034
511 1 0.6683413035 58.5373495327 84.9785417065
512 1 0.6684295363 88.0801415874 33.9151045464
513 1 0.6691135859 12.2244685735 75.5065955363
514 1 0.6697369063 34.4762098200 75.2793076502
515 1 0.6701933825 46.0254952355 11.3013098667
516 1 0.6773184307 4.6246602389 94.8325954059
517 1 0.6777888986 69.1691282479 35.5786826307
518 1 0.6791845015 45.1079885352 25.8794485744
519 1 0.6805801043 21.0468488225 16.1802145182
520 1 0.6829148338 61.3752839815 60.7597441893
521 1 0.6833713100 72.9245693971 96.7817464058
522 1 0.6833900394 18.0381179049 51.8433134208
523 1 0.6847669128 48.8634296843 87.0825123495
524 1 0.6855232755 97.0248519044 14.1585952754
525 1 0.6870036813 99.4792386692 74.5518143419
526 1 0.6881670013 88.8965478492 43.0953307826
527 1 0.6883004081 44.7415309587 39.5622606457
528 1 0.6907520106 3.2205855025 38.9744372357
529 1 0.6911543948 39.5045155248 55.8662384061
530 1 0.6942145080 59.4952083996 37.6826532737
531 1 0.6951536347 23.8847832713 91.9614170011
532 1 0.6956101108 35.4340686869 27.9834192175
533 1 0.6956895531 90.9111503350 95.3784693340
534 1 0.6970057137 11.3729289741 18.2841851613
535 1 0.6971699589 93.3655370998 55.7716884005
536 1 0.6993404432 51.7013641331 62.8637148324
537 1 0.6997969194 63.2506495487 98.8857170488
538 1 0.7011925222 39.1895098360 89.1864829926
539 1 0.7019134340 95.6703861506 23.2235267920
540 1 0.7038943979 83.3113420004 14.7044692036
541 1 0.7047260175 35.0676111103 41.6662312888
542 1 0.7053748037 85.7657287653 75.0976882700
543 1 0.7097271650 26.7227177201 67.7426194839
544 1 0.7107253456 72.2075383603 44.8694476785
545 1 0.7107457371 14.4035927823 90.9017846208
546 1 0.7120357202 25.7601488385 30.0873898606
547 1 0.7143704497 66.0885839975 74.6669195317
548 1 0.7148269259 77.6378694131 10.6889217481
549 1 0.7150600543 80.6203071955 54.8169072060
550 1 0.7157660525 42.0274442848 64.9676854755
551 1 0.7162225287 53.5767297003 0.9896876919
552 1 0.7163489730 97.5690737563 28.0779819568
553 1 0.7174701761 4.3493976829 49.8345654239
554 1 0.7176181316 29.5155899876 91.2904536357
555 1 0.7189505819 6.8037844477 10.2277844904
556 1 0.7204309877 9.2581712125 70.6210035568
557 1 0.7231694172 31.8849293717 56.7310472827
558 1 0.7239428325 77.2714118365 24.3717338194
559 1 0.7256750209 96.7495893483 69.1605652934
560 1 0.7284613296 16.0862289901 32.1913605037
561 1 0.7286358325 1.6583628779 89.9470034264
562 1 0.7307960591 56.4146641491 76.7708901748
563 1 0.7312525352 67.9639495647 12.7928923912
564 1 0.7321916619 32.3535244364 67.0716561185
565 1 0.7326481381 43.9028098520 3.0936583350
566 1 0.7345697109 61.8593415133 51.4420301970
567 1 0.7368406773 94.0585545433 9.2730032959
568 1 0.7403684419 67.5974919882 26.4757044625
569 1 0.7417640447 43.5363522754 16.7764704063
570 1 0.7430348599 18.9241634389 7.9725629865
571 1 0.7458260656 70.8018840135 88.5740948741
572 1 0.7470069550 87.9448529740 90.4928773545
573 1 0.7472216684 46.7407443008 78.8748608178
574 1 0.7473696466 99.2862210763 32.0400315606
575 1 0.7476781446 58.2900297163 14.8968630343
576 1 0.7484873608 90.3992397388 50.8860964210
577 1 0.7490737475 34.2288900036 5.1976289781
578 1 0.7525734575 11.9161077213 44.9610187106
579 1 0.7538582941 19.0371037558 66.6901927717
580 1 0.7551844396 24.2653432185 57.5958561592
581 1 0.7566692636 57.3725230160 29.4750017420
582 1 0.7566922056 82.7994314042 70.2120962905
583 1 0.7576083903 21.7620978877 83.7537654694
584 1 0.7580648664 33.3113833033 19.7757676858
585 1 0.7591023273 6.5285218916 65.2297545084
586 1 0.7603995960 73.6398184623 64.3552973569
587 1 0.7620631390 11.4372954212 86.0161926413
588 1 0.7622516750 61.1279641651 90.6780655171
589 1 0.7636472778 37.0668244524 80.9788314609
590 1 0.7661502090 86.4640121517 39.3968140259
591 1 0.7702679838 3.8374870867 5.3421925109
592 1 0.7730947792 60.1906521078 49.3999343910
593 1 0.7730948730 47.6986031676 31.5789723851
594 1 0.7744904758 23.6374634549 21.8797383289
595 1 0.7768252053 63.9658986139 66.4592680000
596 1 0.7772816815 75.5151840295 2.4812702164
597 1 0.7786772843 51.4540443168 92.7820361602
598 1 0.7799532344 98.6920655169 85.0614114469
599 1 0.7800728872 27.3929046041 83.0828021040
600 1 0.7818562316 19.1439496810 42.6939471590
601 1 0.7884726832 1.6044560668 44.4561467152
602 1 0.7886391062 90.1239771827 5.8880664390
603 1 0.7895204823 38.0246833193 33.6829430282
604 1 0.7901195120 92.5783639476 66.2812855055
605 1 0.7909160852 13.9635436066 23.9837089719
606 1 0.7925296338 16.3074544350 61.2989437233
607 1 0.7932508147 54.2919787656 68.5632386431
608 1 0.7937072909 65.8412641811 4.5852408595
609 1 0.7951028937 41.7801244684 94.8860068033
610 1 0.7983243568 84.9785556130 85.6072853750
611 1 0.8054896155 16.8014780554 99.7649114548
612 1 0.8059460917 28.3507634709 35.7869136712
613 1 0.8080096074 79.8331340432 65.3265043110
614 1 0.8082808212 68.6791986299 80.3664433424
615 1 0.8087372974 80.2284840455 16.3884455588
616 1 0.8096764241 44.6180589172 70.6672092861
617 1 0.8101329002 56.1673443328 6.6892115026
618 1 0.8104197292 3.5622245306 60.3441625289
619 1 0.8104551374 76.0538781220 39.0343218448
620 1 0.8115285031 32.1062046201 96.9899774463
621 1 0.8133805408 8.4709980602 81.1306006618
622 1 0.8178532040 79.8620264689 30.0712576301
623 1 0.8187602936 64.6089902870 43.8411441587
624 1 0.8192488069 55.8008867562 20.3720235739
625 1 0.8206444097 31.7397470435 10.6727895177
626 1 0.8215853856 0.8711897256 0.4566005314
627 1 0.8216356094 32.9907611478 47.5816810209
628 1 0.8247064306 59.0052787816 82.4704139854
629 1 0.8251629068 70.5545641971 18.4924162019
630 1 0.8261020334 34.9441390689 72.7711799292
631 1 0.8265585096 46.4934244844 8.7931821456
632 1 0.8305566652 9.4835720239 41.2625019538
633 1 0.8312706362 95.7257681558 80.1758194674
634 1 0.8335939459 71.0227931763 50.4597826109
635 1 0.8341540257 69.6370574968 33.0705549096
636 1 0.8355496286 45.5759177841 23.3713208534
637 1 0.8369452314 21.5147780714 13.6720867972
638 1 0.8392799609 61.8432132304 58.2516164683
639 1 0.8397364371 73.3924986459 94.2736186847