LAMMPS data file via write_data, version 2 Apr 2025, timestep = 10000, units = metal

14782 atoms
2 atom types

-2.573223 2.573223 xlo xhi
0 200 ylo yhi
0 173.205081 zlo zhi

Masses

1 63.546
2 58.693

Atoms # atomic

1675 1 0.5176476666949112 1.8655291044416158 2.904617702531169 0 0 0
1721 1 -1.9653289596997212 2.01553240401241 2.832463997226083 0 0 0
1766 1 0.484103628322618 2.872142521999713 0.3229460574486558 0 0 0
1767 1 1.7221778262082938 0.5210033708895079 0.9009535552549371 0 0 0
1812 1 -2.127369746501118 2.718831617334042 0.41562132626820064 0 0 0
1813 1 -0.7112521669859888 0.7361934842526859 0.8855631318779841 0 0 0
1673 1 0.7920244528340629 6.148693375245037 1.7945286330160666 0 0 0
1674 1 -0.5485141880740039 4.047304147277302 2.2021755600488495 0 0 0
1719 1 -1.9817511084241934 6.180693773584928 1.7387003234315808 0 0 0
1720 1 1.8048152283933896 3.881512413552694 2.2258682804465244 0 0 0
6327 1 0.7503463046403382 62.35906704589264 0.10344658691388023 0 0 0
1579 1 -1.861818529286154 9.510055761586898 3.1309206449623552 0 0 0
1625 1 0.639299553144141 9.48613036255184 3.1618792184011455 0 0 0
1671 1 0.6597753689335442 10.566258955480299 0.6486813480163254 0 0 0
1672 1 -0.5391443672070918 8.277492407931637 1.088279599797774 0 0 0
1717 1 -1.9371014703772989 10.636516884594853 0.7947163342531289 0 0 0
1718 1 1.9516428474607839 8.370353715193609 1.2474670307081583 0 0 0
1577 1 -1.9251279698908244 13.856266700777187 2.203725108905992 0 0 0
1578 1 -0.6378587479233553 11.774948476510543 2.744251908871071 0 0 0
1623 1 0.7120240984581375 13.873855253283681 2.3497864852900716 0 0 0
1624 1 2.0440543697607434 11.68758827924357 2.6447490118890933 0 0 0
1670 1 -0.6700243243137594 12.724977030438977 0.18857874878866296 0 0 0
1716 1 1.894204356759873 12.795809081442084 0.3323454806932191 0 0 0
1576 1 -0.5410732599298265 15.966896482917402 1.839919249059108 0 0 0
1622 1 1.9143278904337189 16.133960304534995 1.6305129974602548 0 0 0
14568 1 -1.8944163735698167 99.98814312566194 72.59168811557667 1 0 0
1621 1 0.5475298530018644 18.120868542194923 1.2472651286084724 0 0 0
1483 1 1.9959614088846915 19.22969211768609 3.098927887370486 0 0 0
1529 1 -0.6599303592619574 19.290864221610345 3.0189636697471154 0 0 0
1574 2 -0.6966143657532895 20.274995838578715 0.725810462900413 0 0 0
1575 1 -2.029101028755128 18.160327594930973 1.26384400957619 0 0 0
1620 1 1.9452123619523312 20.38485144301815 0.8291349962239184 0 0 0
1482 1 0.605650112777525 21.38556465066734 2.595335664243221 0 0 0
1528 1 -1.8718398034560584 21.49767614716249 2.529833311488923 0 0 0
1481 1 1.9770522601541698 23.67909362038872 2.1749615804731137 0 0 0
1527 1 -0.5264539326785511 23.561398106087037 2.1633964255308116 0 0 0
1573 1 -1.858645062128915 22.485865756983557 0.24597060501243162 0 0 0
1619 1 0.7160685326397368 22.375134019216077 0.20880474305048335 0 0 0
5911 1 0.9590731072265424 84.48467800793715 0.1720364749899897 0 0 0
9118 1 1.8427451898277891 60.63000008533143 86.58987947069978 0 0 0
1479 1 1.9972907906170227 28.03162332013108 1.3551535411760325 0 0 0
1480 1 0.7235679633775651 25.78516791176548 1.8357106046123035 0 0 0
1525 1 -0.6055544994142193 27.919103263380087 1.2529764116134454 0 0 0
1526 1 -1.947604345033629 25.7775294835824 1.7577483780027128 0 0 0
1385 1 -0.4210883630755694 31.216283755531382 2.5794016851884813 0 0 0
1386 1 0.6823841704110812 29.134830852678643 3.2008826464450313 0 0 0
1431 1 2.213263423551002 31.20418794581898 2.710243146990988 0 0 0
1432 1 -1.785457654574988 29.174058863817727 3.148358215024463 0 0 0
1478 1 0.4790701363676526 30.14581905510496 0.5792339976487472 0 0 0
1524 1 -1.9664822810604983 30.05546440141633 0.6441735764666802 0 0 0
1477 1 1.8718059450884776 32.22246016811095 0.2783037357909208 0 0 0
1523 1 -0.6128920785886532 32.233974692554874 0.17722964064488544 0 0 0
1384 1 0.7900450595513526 33.46415428313533 2.237632030958599 0 0 0
1430 1 -1.9440775346444805 33.28607720332751 2.0898105962058127 0 0 0
1383 1 -0.6078306864825204 35.73284224567587 1.6564277462780215 0 0 0
1429 1 2.1304219287634876 35.65943688278215 1.691267628509143 0 0 0
1289 1 -0.6828411912326502 39.208796110109056 3.1178593495876616 0 0 0
1335 1 1.814986134526464 39.0869549945017 3.0320951281634785 0 0 0
1382 1 0.8206764469110361 37.83586559411519 1.2010244020890022 0 0 0
1428 1 -1.9345456042625917 37.846085959799275 1.3368546800743266 0 0 0
1336 1 0.7083002999854814 36.91477107235561 3.608162124476994 0 0 0
1290 1 -1.9135123398806326 36.95718505986919 3.5227225265276725 0 0 0
1380 1 0.7115839664732475 42.24681368075272 0.28953135302473976 0 0 0
1288 1 -1.885946068107419 41.417975504725746 2.5844855037249346 0 0 0
1334 1 0.7220794965417202 41.34052601830645 2.5237604783104817 0 0 0
1381 1 -0.5358460115946946 39.89071201788848 0.881559249715156 0 0 0
1427 1 2.0403768454259925 40.07577897106178 0.7228561319756303 0 0 0
1426 1 -1.8377383693865794 42.32546708567005 0.14052269618503663 0 0 0
1286 1 -1.9403504985302433 45.549880769701396 1.430639367745097 0 0 0
1287 1 -0.5687893276878476 43.475315100521804 2.057862348380934 0 0 0
1332 1 0.7091467870017788 45.66165908653697 1.495530471848359 0 0 0
1333 1 2.051916500051966 43.52305462088588 2.0694392984759626 0 0 0
1241 1 -1.694774204604148 44.83451193586911 3.911940182600903 0 0 0
1193 1 2.0757801827912057 49.42897548779398 2.8743914652872924 0 0 0
1194 1 2.0193853837505893 47.024608021715615 3.219061783642547 0 0 0
1239 1 -0.42442729910000054 49.36347510291168 2.9450192323065436 0 0 0
1240 1 -0.5100908191581237 46.912425419325764 3.187443305583236 0 0 0
1285 1 0.6421650434202935 48.109187283351694 1.1616949618017591 0 0 0
1331 1 -1.9315319418803127 47.906890834943525 1.2615504054451632 1 0 0
6416 1 -0.5918256751928408 52.6435954381962 2.8742652967359152 0 0 0
6457 1 2.07025290470797 52.62540774804713 2.7251617754420114 0 0 0
6498 1 0.6174411811698018 50.9410039483219 1.1289755251040114 0 0 0
6538 1 -1.9269632775054624 50.81403765800349 1.2785995239558139 0 0 0
6497 1 -0.6453782604361709 53.04107413717013 0.3674965313897038 0 0 0
6537 1 1.9126726439414532 53.01695283074122 0.27690994434266036 0 0 0
6330 1 2.0233011523184996 56.41717909701572 3.2290270226422293 0 0 0
6373 1 -0.6302584386292457 56.39972500268801 3.1246035089853024 0 0 0
6414 1 -0.4258727455994098 56.70074816478726 0.6494734715248327 0 0 0
6415 1 -1.900940376252068 54.65236868858091 1.7992638115559907 0 0 0
6455 1 2.170899344112896 56.67076233169732 0.787932478871682 0 0 0
6456 1 0.49086440153209815 54.7410278025036 1.8230789421727271 0 0 0
6328 1 2.215933555114624 60.450905836383434 1.2282552791884453 0 0 0
6329 1 0.9176238187241098 58.34632328430056 2.2255582415573394 0 0 0
6371 1 -0.4329827817612639 60.354727975997854 1.1947401697433804 0 0 0
6372 1 -1.7681111086256107 58.32491941310789 2.2764045119128333 0 0 0
6239 1 -0.5555006622684077 64.14507006998073 1.5841222336027811 0 0 0
6240 1 0.8518497951182831 62.120619423820685 2.6580489364836186 0 0 0
6283 1 2.0915732899435158 63.88960647057718 1.6547344897615341 0 0 0
6284 1 -1.7442918911872671 62.15533226264674 2.62790829752338 0 0 0
7918 1 -2.207055145815491 99.7904378089231 68.21277075982994 0 0 0
6148 1 -0.2677145925403049 67.77085892348077 2.0299524915010623 0 0 0
6149 1 -1.800235497215864 65.79203907765017 2.9796901401318094 0 0 0
6193 1 2.206955198303361 67.68842142860431 2.0686876517022994 0 0 0
6194 1 0.9719605447218742 65.6721348152443 3.074454888030589 0 0 0
6238 1 0.7052939469572244 65.9860413291173 0.6157574475554309 0 0 0
6282 1 -1.755480053483704 66.04387237417563 0.5027942745078322 0 0 0
6147 1 -1.8047793842334436 69.6908203712906 1.0071584505418225 0 0 0
6192 1 0.9009011574210423 69.74996029604742 1.034528551930656 0 0 0
6057 1 1.9221851003174115 71.39292663198209 2.548371977731723 0 0 0
6102 1 -0.5545133722863501 71.3480739480997 2.4733824260341755 0 0 0
6103 1 -1.4660097104536418 69.31430432524371 3.5402154871524534 0 0 0
6058 1 1.002591811081341 69.3048095349242 3.5738777940575046 0 0 0
6010 1 1.936512468530588 74.94648515521463 2.989998074017811 0 0 0
6056 1 0.7390226734441372 73.33074231933794 1.4454359011736122 0 0 0
6101 1 -1.811657695603982 73.45459096995258 1.5082081010701551 0 0 0
5963 1 -0.5427954222496358 75.02460788790599 3.058401032089516 0 0 0
9843 1 1.791507180959492 5.828808840408969 86.5067079298216 0 0 0
6055 1 2.056360641761372 75.27687066611915 0.48727552096922117 0 0 0
5962 1 0.7498324722259829 76.83366451129922 2.09127657877817 0 0 0
6009 1 -1.7610720796600277 76.81270998205352 1.9082696876124188 0 0 0
6100 1 -0.5351623018253848 75.36410392217998 0.5286366797318626 0 0 0
5866 1 -0.4676691115796965 78.43387096548079 3.451103735923352 0 0 0
5914 1 2.1241860830589965 78.53273889504793 3.4544553349902767 0 0 0
5865 1 -1.6758970981526289 80.55268115938448 2.247192005070219 0 0 0
5913 1 0.9819912875454374 80.30986552171942 2.3157889091800326 0 0 0
5961 1 -0.45518771586769197 78.89405546050114 0.7501921350931752 0 0 0
6008 1 2.0552111159839788 78.73852590816081 0.8805464869839579 0 0 0
5766 1 0.8774263817607276 84.04144367316351 2.699632768678607 0 0 0
5815 1 -1.6307071138433034 84.05956666413809 2.728642292336804 0 0 0
5864 1 -0.5008276377629753 82.43061598268294 1.238426590454472 0 0 0
5912 1 2.097159411927637 82.36861063513409 1.1904612336557214 0 0 0
8527 1 -0.7268121159576205 94.3587534427344 84.15318131035639 0 0 0
5665 1 0.8664102207328147 87.82238091844252 3.1307217403881467 0 0 0
5715 1 -1.681272206970125 87.76306501082748 3.0733587425056794 0 0 0
5764 1 0.9741767875274533 88.10856729519861 0.6703699645155933 0 0 0
5765 1 2.2027342158775203 85.96994333817648 1.6380377838001958 0 0 0
5813 1 -1.7358501655778324 88.13509013457119 0.6262147873858598 0 0 0
5814 1 -0.4472473181907639 86.18901499894844 1.6339234323453287 0 0 0
5663 1 0.6928930010146944 91.77642678781925 0.9368604274208406 0 0 0
5664 1 -0.4647227182429447 89.73042500414445 2.120227791163719 0 0 0
5713 1 -1.8887744406177944 91.71472114893007 0.9465898240435409 0 0 0
5714 1 2.07282929759831 89.88726112077721 1.9714155717467057 0 0 0
5562 1 -1.7450613617785586 91.47932072649796 3.6178387005454695 0 0 0
5613 1 0.9044174173489891 91.49176821570639 3.5159689709283333 0 0 0
5560 1 -1.8262269596596044 95.25610356205998 1.468231339759673 0 0 0
5561 1 -0.5861884731282518 93.29194211941517 2.4600343618776086 0 0 0
5611 1 0.7246050008160682 95.29515870194784 1.4287354550144589 0 0 0
5612 2 2.0084717991872036 93.41065154019543 2.3478259244624993 0 0 0
5455 1 0.6844287768346573 98.79819492854818 1.7976824260343065 0 0 0
5456 1 1.8836245351904999 96.98249763857139 2.9755053233022917 0 0 0
5507 1 -1.9354970882144147 98.89220174032022 1.8230519074708202 0 0 0
5508 1 -0.6045432719903056 96.95396217216047 2.869588130858802 0 0 0
5610 1 2.0202778130650048 97.25059611558532 0.4014804111396085 0 0 0
5559 1 -0.4839421498794273 97.28519266996769 0.2441254044783498 0 0 0
1582 1 -0.6044509441476036 3.0588331049734134 4.733327716879177 0 0 0
1583 1 -1.921250918333434 0.8029271727083873 5.234120666737009 0 0 0
1628 1 1.9072590035831776 2.945078171838644 4.739718062327407 0 0 0
1629 1 0.4848514945015672 0.8639719279768246 5.238945683221702 0 0 0
1626 1 2.088290039272933 7.289983123867349 3.636119717717148 0 0 0
1489 1 1.9699461422618643 6.436540325200984 6.061165471146799 0 0 0
1490 1 0.7192910041583334 4.294342359917286 6.607160483466621 0 0 0
1535 1 -0.5310537371021846 6.436141346318136 6.012724671662714 0 0 0
1536 1 -1.8927143971612819 4.2170887632958545 6.574723152891346 0 0 0
1581 1 -1.8009475811989983 5.115819845188366 4.261365070573875 0 0 0
1627 1 0.8461593375088461 5.204944330215049 4.199385315689018 0 0 0
1580 1 -0.46256416747864293 7.264888195808722 3.5270884978648724 0 0 0
1488 1 0.6672436618925404 8.478516667447403 5.437713326708195 0 0 0
1534 1 -1.7744168966796867 8.553422974543977 5.499550267072219 0 0 0
1533 1 -0.5180117147834052 10.777904815474718 4.984204163225734 0 0 0
1487 1 2.0668858450544048 10.65907958487904 5.0214214075491075 0 0 0
1439 1 1.823830783274125 14.062439685266755 6.517989442734293 0 0 0
1486 1 0.8853283524429936 13.040122431348038 4.6140406805159095 0 0 0
1532 1 -1.7915412169589167 12.710979381625393 4.597660376245649 0 0 0
1394 1 0.5868623033376832 11.785483611012232 6.93720118231681 0 0 0
1440 1 -1.956948673035953 11.920200846009811 6.91276621551253 0 0 0
1393 1 -0.6371442281804155 13.934507256170116 6.495698255539317 0 0 0
1484 2 0.637465783541691 17.164019275625932 3.602066404740141 0 0 0
1530 1 -1.9756256415964557 17.25102586846764 3.661907284091005 0 0 0
1392 1 0.6312059375402078 16.123297200373656 5.929317091198436 0 0 0
1438 1 -1.903162863368087 16.210681387995574 5.999519308942547 0 0 0
1485 1 1.966665884887349 15.178707371679348 3.9970613196711673 0 0 0
1531 1 -0.7040361177631631 14.934234662294012 4.075111752606554 0 0 0
1390 1 0.6085022298982464 20.40969170011019 4.932830456870911 0 0 0
1391 1 -0.5614834459384046 18.39860135083224 5.536213728138733 0 0 0
1436 1 -1.8592025926525786 20.526456958952135 4.8777893042337395 0 0 0
1437 1 2.0582575923926822 18.36043198196649 5.569130660602931 0 0 0
1343 1 1.9101285044509235 21.65286964295531 6.83737854527179 0 0 0
1296 1 -1.8429218979872213 23.83930141960618 6.487781352630006 0 0 0
1297 1 -0.6746844966079647 21.641892943937773 6.88861494647427 0 0 0
1342 1 0.6696191254761908 23.867926289084068 6.306430142353128 0 0 0
1388 1 0.7809349068257605 24.759546792651847 4.00197805534355 0 0 0
1389 1 -0.608644863891274 22.58361399968874 4.59958540145191 0 0 0
1434 1 -1.8213900942107801 24.71280359677572 4.073114049584643 0 0 0
1435 2 1.8276434982369507 22.607108521276572 4.462955916414043 0 0 0
1433 1 2.1210967416818707 27.053493218617348 3.6909011056214456 0 0 0
1387 1 -0.5120825178986276 26.96469480229792 3.727676114089633 0 0 0
1294 1 -1.7920992715869355 28.15570641927077 5.448750323920596 0 0 0
1295 1 -0.5272300838422845 26.05155307132917 5.9490233760424704 0 0 0
1340 1 0.7059361717843154 28.1692315085669 5.580776793294045 0 0 0
1341 1 2.0054615195702077 26.000904937264348 5.951798273210243 0 0 0
1201 1 0.5949011285489196 31.668782483636583 7.003069280106731 0 0 0
1247 1 -2.0231663064911114 31.474602502694236 6.915276597709685 0 0 0
1293 1 -0.5927229785802837 30.336927818051407 4.9268209991601175 0 0 0
1339 1 2.0584604372428053 30.375114886853527 5.013992536830015 0 0 0
1200 1 1.7777384687301572 33.71087652762533 6.379872552273508 0 0 0
1246 1 -0.8523095028986627 33.70765711760484 6.413177201766702 0 0 0
1291 1 -0.7431605680059498 34.64897755921239 3.9514330091923298 0 0 0
1292 1 -1.9004879643377153 32.532198966478575 4.5255811473220895 0 0 0
1337 1 1.922172173655018 34.62863268063234 4.026847494497222 0 0 0
1338 1 0.5801678976726641 32.51739098308404 4.464037176653943 0 0 0
1199 1 0.5399590505832421 35.67078323110293 5.815717229669985 0 0 0
1198 1 2.0632797492417754 37.93820808268032 5.421864294893126 0 0 0
1244 1 -0.6078551632366521 38.092399326882365 5.361770397638457 0 0 0
1245 1 -1.9657163964915578 35.7741534730788 5.863061390797659 0 0 0
1107 1 0.6049108955346675 39.21848600198011 7.17431729917603 0 0 0
1106 1 -0.4646961754072045 41.507915544497486 6.794651641253114 0 0 0
1151 1 2.087887544916812 41.408093960923104 6.799772772420575 0 0 0
1196 1 2.1683677625555293 42.65225260136568 4.505872169449864 0 0 0
1197 1 0.9018052848088511 40.28664095563305 4.957040273436471 0 0 0
1242 1 -0.4286128940752957 42.59259007597479 4.382007507973635 0 0 0
1243 1 -1.7858048323581601 40.36237418377097 5.000242153754655 0 0 0
1195 1 0.9224796947305504 44.698935865484586 3.9783150415845125 0 0 0
1104 1 -0.5315390508291561 46.157799533628335 5.813114335700188 0 0 0
1105 1 0.706286128873033 43.887479960880654 6.299177511342528 0 0 0
1150 1 -1.7467560940573446 43.82353882804768 6.251672213487696 0 0 0
1149 1 1.9762491290591218 46.16600046567354 5.795958515765621 0 0 0
1011 1 -0.41640327551231426 48.87205163791898 7.405762190384338 0 0 0
1103 1 0.6497242313663647 48.29911249654186 5.107504122480623 0 0 0
1148 1 -2.0684521509533975 48.5792909929104 5.1149813391403995 0 0 0
1057 1 2.164504645872228 48.99727660977772 7.374089119623705 0 0 0
6458 1 0.8282788495558725 50.97890820797658 4.097231311804735 0 0 0
6332 1 2.058269823150687 52.655502762537346 5.412553686825476 0 0 0
6333 1 0.8529330461213374 50.843443599914835 6.569023455028652 0 0 0
6375 1 -0.42412862538607465 52.73568937819333 5.358751528283191 0 0 0
6376 1 -1.7593435741831913 50.942576208406045 6.6254400223883225 0 0 0
6417 1 -1.8751693993665914 50.97189447158837 4.159811312550714 0 0 0
6243 1 -0.4091743980391155 56.15804469146979 5.9424795135954 0 0 0
6244 1 0.8870803406620184 54.27259905706034 6.968039695352137 0 0 0
6287 1 2.1728303424757933 56.16294368441753 5.7064564722022855 0 0 0
6288 1 -1.6917064664464805 54.27713009295193 6.948881520777236 0 0 0
6331 1 0.8341754603068116 54.50929269216072 4.289630591919393 0 0 0
6374 1 -1.7964822550504191 54.50291061906839 4.3295564934650095 0 0 0
6285 1 2.1558782740381215 60.16243545594595 3.755377046680818 0 0 0
6241 1 -0.46952268549146975 60.173962717469294 3.610070419807263 0 0 0
6152 1 -0.3889506446400981 59.87128159318693 6.2095992231711 0 0 0
6197 1 2.1329704281862116 59.71881207187032 6.197351138612397 0 0 0
6242 1 0.7500435170169854 58.07349670504505 4.5658441379101795 0 0 0
6286 1 -1.7926783405411975 58.10171733957229 4.749023688106909 0 0 0
6061 1 2.1885657853623948 63.53820738205109 6.520481125659878 0 0 0
6106 1 -0.4014096922420997 63.41218519433071 6.596443098635772 0 0 0
6150 1 -0.47396387145318547 63.84722750298901 4.045441041708674 0 0 0
6151 1 -1.5975854433722199 61.74858944817764 5.151886998460277 0 0 0
6195 1 2.2051722449641105 63.734720218456125 3.961629516652549 0 0 0
6196 1 0.923457338617161 61.90550521970986 5.098657191637608 0 0 0
6059 1 2.3001814714083335 67.38035721410027 4.620051324468205 0 0 0
6060 1 0.8324348897393977 65.38145986893686 5.584610026956061 0 0 0
6104 2 -0.24177220966984395 67.25695538426264 4.380907815562913 0 0 0
6105 1 -1.6919765822740593 65.44533775837048 5.524589719198092 0 0 0
6014 1 2.1029953334742864 67.01911449172032 7.114688843257736 0 0 0
5967 1 -0.549376928268453 66.86831497885478 7.121410929669669 0 0 0
5965 1 -0.42424516359759895 70.86219156899568 5.052646582981505 0 0 0
5966 1 0.8726216216784664 69.0654572471455 6.043815331765442 0 0 0
6012 1 2.236146598779183 70.85729270530426 4.889792598938769 0 0 0
6013 1 -1.6558054117552448 68.92883461644227 6.053418215773482 0 0 0
5868 1 -0.3727243735869486 74.5537078081392 5.541725948497955 0 0 0
5869 1 -1.6814670975086594 72.57564872243033 6.349065894629157 0 0 0
5916 1 2.0495033141091605 74.59993220179123 5.575014670694673 0 0 0
5917 1 0.9174012283055408 72.52371480726096 6.54943654872469 0 0 0
5964 1 0.8112515371611346 72.83016396847383 4.057173061912543 0 0 0
6011 1 -1.8129664275366253 72.89629084246262 4.00169162886827 0 0 0
5769 1 2.1088827737096634 78.1538870827797 6.032451865165404 0 0 0
5770 1 0.7493173727957487 76.27590838398801 7.031395845825147 0 0 0
5818 1 -0.431093654962217 78.21068583055322 5.893522296421142 0 0 0
5819 1 -1.7951342159721657 76.16370860796277 7.014099709580808 0 0 0
5867 1 -1.7652098121483881 76.48804094767182 4.50340959748481 0 0 0
5915 1 0.7634917468114353 76.52462609112217 4.558659074473758 0 0 0
5668 1 -0.3982192732843149 81.73633504753491 6.515732189457723 0 0 0
5718 1 2.1478459380679027 81.73925303806868 6.4949998025754425 0 0 0
5768 1 0.8796599415710923 80.08984814999583 5.014967697499627 0 0 0
5817 1 -1.84185735079162 80.26958884734988 4.9652050541731185 0 0 0
5816 1 -0.4181217109316107 82.00024739966211 3.711466393541015 0 0 0
5767 1 2.0418398254662784 82.20890173989555 3.9296586541037506 0 0 0
5565 1 -0.4176938738943762 85.3519321063822 6.899360937468062 0 0 0
5616 1 2.059050743217477 85.54471637976988 6.683266825289184 0 0 0
5667 1 0.8403201193180507 83.8527734788399 5.282165214024655 0 0 0
5717 1 -1.698839294051557 83.7202408887019 5.365173414642918 0 0 0
5666 1 -0.5547413563541024 85.83057175961257 4.304372651518018 0 0 0
5716 1 2.0689139604528695 85.78315420144233 4.225326228451474 0 0 0
5564 1 -1.7965387937633925 87.46998055241241 5.634619742993561 0 0 0
5615 1 0.7395591885698082 87.50884442497882 5.7548448522837115 0 0 0
5512 1 -0.46683672726158226 89.06712195269793 7.2416735221830155 0 0 0
5460 1 2.095445079088116 89.1313808040698 7.182649327668755 0 0 0
5614 1 2.2558468484792042 89.56883651916571 4.738610577106904 0 0 0
5563 1 -0.4203542912639649 89.5120082084732 4.519309950370579 0 0 0
5459 1 0.8398171347388362 91.05039355237848 6.228283389305724 0 0 0
5511 1 -1.5492137432680444 91.026931534792 6.1165412170107025 0 0 0
5458 1 2.094346621053103 93.05689604752847 4.915052874596567 0 0 0
5510 1 -0.5113614148742294 93.04679614565798 5.070833923836403 0 0 0
5357 1 0.8120295761592548 94.75814940573488 6.4136783451680355 0 0 0
5407 1 -1.8214776241615174 94.64521935652265 6.50551025424777 0 0 0
5457 1 0.5800697103230498 95.05867303294981 3.9152036695577963 0 0 0
5509 1 -1.9560242512114308 94.982026963697 3.9452712574052056 0 0 0
5356 1 -0.6560157960594287 96.51076084858373 5.480038244024775 0 0 0
5406 1 1.9398074633058633 96.68226240268763 5.48998579572221 0 0 0
5257 1 -1.8461338803127445 98.37769732252391 6.7878786629449674 0 0 0
5306 1 0.6947497133955466 98.4358280339059 7.016256273795069 0 0 0
5355 1 0.7710011940947082 98.66394863535025 4.395365626750311 0 0 0
5405 1 -1.7338995392896799 98.42888563763616 4.3067863874047125 0 0 0
1491 1 1.8976647943453906 2.111588156680144 7.224622094829121 0 0 0
1537 1 -0.7532399363945799 1.938902051156524 7.100349740635219 0 0 0
1398 1 0.5462676749752288 3.2748313451581583 8.94102163408402 0 0 0
1399 1 -0.5413770890662417 0.9703855502950851 9.464326218428486 0 0 0
1444 1 -1.9702807293527274 3.2334342434722285 9.076540980601912 0 0 0
1445 1 2.052244517212916 1.0448520602238645 9.52475253000864 0 0 0
1304 1 -1.8375676487098975 6.62956250574668 10.367985141472673 0 0 0
1350 1 0.6562191754232646 6.686020663326961 10.475931214561369 0 0 0
1397 1 -0.6312859383858818 5.496179136720787 8.462543276869386 0 0 0
1443 1 1.7898392438454094 5.402175551463642 8.53021946462389 0 0 0
1305 1 -0.554345949505417 4.455532621231113 10.805324756368838 0 0 0
1442 1 -1.8883764416152455 7.592430043549055 7.9176724223954125 0 0 0
1303 1 -0.5466043016120733 8.67644386891774 9.963527769396782 0 0 0
1349 1 1.947253328473316 8.732225792204929 9.849861783174916 0 0 0
1395 1 -0.7000684790227122 9.637036442234152 7.388620956580287 0 0 0
1396 1 0.605520398136393 7.510472651348534 7.842977256215967 0 0 0
1441 1 1.8374343064293712 9.690382355735455 7.396735511463603 0 0 0
1348 1 0.5484412177610605 10.881368758180981 9.509715197479146 0 0 0
1302 1 -1.998968019290296 10.829578617852624 9.220764038397826 0 0 0
1301 1 -0.9278289104495439 13.015952758484826 8.834735176308214 0 0 0
1347 1 1.6978696270286453 13.074128849634075 8.850586761495439 0 0 0
1255 1 -1.930628253652028 14.221652089986655 10.570293188281077 0 0 0
1209 1 0.567222758488655 14.132736523247067 10.73882857851466 0 0 0
1208 1 1.9778714478249309 16.38425809571568 10.20246154459432 0 0 0
1254 1 -0.663948550437461 16.456284057488755 10.314009911212587 0 0 0
1299 1 -0.7707472172480124 17.415294910517414 7.93671724983405 0 0 0
1300 1 -2.0527315192924283 15.231469369440413 8.295885385258105 0 0 0
1345 1 1.8469582561182185 17.326203679523108 7.853053558522058 0 0 0
1346 1 0.48962899364899604 15.167266793433228 8.355667543928297 0 0 0
1206 1 2.0119470124817926 20.72472826244193 9.158885789259559 0 0 0
1207 1 0.5451128995200588 18.59914739352005 9.745284171248839 0 0 0
1252 1 -0.5964845209652502 20.701682390207587 9.275317972751795 0 0 0
1253 1 -2.0662815826765675 18.594399888502117 9.692838426316186 0 0 0
1298 1 -2.011360693639973 19.57240642411829 7.3144956397948695 0 0 0
1344 1 0.608854077118387 19.530797746486538 7.35477119536477 0 0 0
1205 1 0.7260863010519898 23.01889061762669 8.57272642869423 0 0 0
1251 1 -1.8590381829886171 22.80776533358342 8.68782728824543 0 0 0
1114 1 -0.5426354586622228 24.194604179635835 10.644667457167742 0 0 0
1250 1 -0.5353815122698204 25.06462344893736 8.34120491895552 0 0 0
1204 1 2.0162667563249825 25.13026701673675 8.390401252280327 0 0 0
1113 1 0.6981551125940948 26.2400525905355 10.172923522974289 0 0 0
1158 1 -1.7843854465409204 26.234748766998315 10.196127645965738 0 0 0
1203 1 0.6270995807562308 27.11436256479856 7.926940778025712 0 0 0
1249 1 -1.9663906541268297 27.33023508560019 7.857149627862277 0 0 0
1112 1 -0.520829094093546 28.575856760994217 9.609306099888446 0 0 0
1157 1 1.9452471565116272 28.460119308541227 9.658012125037695 0 0 0
1248 1 -0.6395966352135961 29.46361042378208 7.410204516409573 0 0 0
1202 1 1.8034876619045337 29.380970838733234 7.307982986183556 0 0 0
1111 1 0.6949400873694505 30.724891840124403 9.408068302955126 0 0 0
1156 1 -1.8471028334479278 30.77668422866731 9.26024555438645 0 0 0
1018 1 -1.9120665062861344 34.10609257696985 10.599187593909745 0 0 0
1064 1 0.6294079577152202 33.9191904808098 10.662034140966139 0 0 0
1109 1 0.48968078055397607 34.898768193290906 8.126444744684928 0 0 0
1110 1 -0.7243540712605395 32.91543271477888 8.789464302910728 0 0 0
1154 1 -2.004346150759578 34.94583338226834 8.17934854695863 0 0 0
1155 1 1.8573059156081262 32.85119249054596 8.773898572320242 0 0 0
1016 1 -1.8331641937808396 38.341945078804876 9.708769747232372 0 0 0
1017 1 -0.5535194478788451 36.052356908769305 10.083222991118332 0 0 0
1062 1 0.7025781215691301 38.29579380479917 9.76008776831475 0 0 0
1063 1 2.0257459305903622 36.12081507146214 10.156482983017764 0 0 0
1108 1 -0.7257546175886617 37.04000481292549 7.742704889541921 0 0 0
1153 1 1.8563307694212794 37.1148977473069 7.871746680618995 0 0 0
1152 1 -1.894758861114906 39.265611007999134 7.247732098459718 0 0 0
1014 1 -1.8634840434393651 42.550165687992475 8.724079777689628 0 0 0
1015 1 -0.5297639268084264 40.525419537239095 9.117083190214592 0 0 0
1060 1 0.7405407037827213 42.69423716644035 8.484923177918557 0 0 0
1061 1 2.0433053378166295 40.29557385002607 9.058764155871827 0 0 0
924 1 0.9801759262944785 46.00791377792775 10.32526600593125 0 0 0
925 1 1.8839606096752703 43.8187088791483 10.35416438444545 0 0 0
968 1 -1.5299481805423885 46.229625387374924 10.123343611943236 0 0 0
969 1 -0.5565928747620563 43.71934045486358 10.42983993521188 0 0 0
1013 1 -0.4764991240833776 44.85155675728814 8.230839480572484 0 0 0
1059 1 2.1459768841384927 44.778774662208384 8.182084861362725 0 0 0
1012 1 -1.7093607600632779 47.012431336103546 7.790925075972483 0 0 0
1058 1 0.8627910413677826 46.90638773586856 7.954651828961383 0 0 0
923 1 2.390996210794666 48.36375025083053 9.878346472271371 0 0 0
967 1 -0.2754566792818965 48.45355265966326 10.005145474425426 0 0 0
6290 1 -1.5870427887230476 50.42744582844055 9.015074517150941 0 0 0
6246 1 0.9672454724416176 50.33899071927166 9.03134294626957 0 0 0
6156 1 -0.18568378581162825 51.98160703944329 10.531561559327935 0 0 0
6201 1 2.313046672792723 51.97231526564468 10.717385905374565 0 0 0
6245 1 -0.40625818632261834 52.53684057844907 8.124811550348412 0 0 0
6289 1 2.146279702550413 52.383045350960025 8.064737554989758 0 0 0
6155 1 -1.6584167575565616 53.98350668824662 9.66214799294322 0 0 0
6154 1 -0.4379831508745953 55.914752737205106 8.53595258032999 0 0 0
6199 1 2.2085863789134765 56.00924849105779 8.450954502655236 0 0 0
6200 1 0.9101248358928061 54.053607723688316 9.433047784994443 0 0 0
6198 1 0.9171360021553135 57.83248751435267 7.408631255901791 0 0 0
6153 1 -1.5783176360222915 57.740063153669766 7.310357392904394 0 0 0
6063 1 2.2493065233992877 59.43006002130721 8.73256122547615 0 0 0
6064 1 0.8540088088480988 57.61055404785136 9.961141037607423 0 0 0
6108 1 -0.2960426297572542 59.64096253479394 8.778127588100398 0 0 0
6109 1 -1.6904559101640508 57.649223437474504 9.850345376812072 0 0 0
5969 1 -0.3602664610367177 63.05577610386821 9.158371365404909 0 0 0
5970 1 0.8776514812431948 61.09457540341706 10.32377823010851 0 0 0
6016 1 2.199511366292704 62.96082269316141 9.279511531467007 0 0 0
6017 1 -1.6937195621228842 61.07866486176762 10.228488823992034 0 0 0
6062 1 0.9214956570851885 61.45053640032554 7.693502477104562 0 0 0
6107 1 -1.68496697864583 61.46893646123318 7.592960920813022 0 0 0
5872 1 -0.5053241355293672 66.6429685145441 9.604187586100267 0 0 0
5920 1 2.2179505598297293 66.51643253618757 9.76972303262327 0 0 0
5968 1 0.8691940807295718 65.01533412231142 8.174650760041462 0 0 0
6015 1 -1.7333353119132053 64.91612702160029 8.06355992497176 0 0 0
5873 1 -1.6480281113858053 64.7261522183573 10.82130848239465 0 0 0
5921 1 0.90893836915661 64.61131335317197 10.791433992393577 0 0 0
5773 1 2.200820788033856 70.21773554592924 10.119652185574246 0 0 0
5822 1 -0.41498283583057677 70.14023210956064 10.141281323015296 0 0 0
5870 1 -0.3011221910214239 70.65595917364429 7.520134550818429 0 0 0
5871 1 -1.8260722283387125 68.58777057145736 8.687703486430474 0 0 0
5918 1 2.1422290923936225 70.55113355989273 7.405449116843524 0 0 0
5919 1 0.9213948784210299 68.70307081715934 8.627834623021476 0 0 0
5672 2 -0.4079605977503358 73.63591543034646 10.428986906168646 0 0 0
5722 1 2.1935404147394757 73.76890341004005 10.636860001098874 0 0 0
5771 1 2.0787256098414 74.18516769550288 8.111177857226627 0 0 0
5772 1 0.969550828638362 72.11363941658486 9.048017393086912 0 0 0
5820 1 -0.4416161784186776 73.98244568601055 7.988450239601817 0 0 0
5821 1 -1.6332240267551172 72.06227368488936 8.980829619420064 0 0 0
5670 1 -0.39760220974971966 77.83400691460771 8.508210201234876 0 0 0
5671 1 0.9113876969916421 75.83257469278423 9.476275614079562 0 0 0
5720 2 2.154610991978546 77.84743550266448 8.525848142697553 0 0 0
5721 1 -1.760341041393666 75.90580839974588 9.516880515333646 0 0 0
5719 1 -1.8213116779539384 79.79390144151208 7.512520396078297 0 0 0
5669 1 0.7843805749529985 79.83063482486817 7.559762462958641 0 0 0
5567 1 -0.37870009852041936 81.41729488170687 8.94348641617152 0 0 0