LAMMPS data file via write_data, version 2 Apr 2025, timestep = 892, units = metal

14782 atoms
2 atom types

-2.573223 2.573223 xlo xhi
0 200 ylo yhi
0 173.205081 zlo zhi

Masses

1 63.546
2 58.693

Atoms # atomic

1675 1 0.5977523172261597 1.6979924514695117 2.8966985845081386 0 0 0
1721 1 -1.9753427014064788 1.6982984258503009 2.8966577798008233 0 0 0
1766 1 0.5962015926780628 2.67856742127854 0.5189441379633111 0 0 0
1767 1 1.8838788028009443 0.5110856481259514 1.0104220228042091 0 0 0
1812 1 -1.9759225158775435 2.678646044950333 0.5189066287994099 0 0 0
1813 1 -0.6894955034600273 0.5104182882720015 1.010270018859534 0 0 0
1673 1 0.5965784005270817 6.035243540293059 1.9172153290261513 0 0 0
1674 1 -0.689296411604685 3.8668964029232487 2.40594181193663 0 0 0
1719 1 -1.9763270600805112 6.035146043242144 1.917279700258453 0 0 0
1720 1 1.8838690009163215 3.8665340206962857 2.4068679926581047 0 0 0
1579 1 -1.9772505401912364 9.391798793156283 3.318496021631041 0 0 0
1625 1 0.5975233798267079 9.391439716771117 3.3184522632495383 0 0 0
1671 1 0.5960604624182313 10.37112531492273 0.9393650974181917 0 0 0
1672 1 -0.6903956417944502 8.204253790102676 1.429659062907862 0 0 0
1717 1 -1.977689445357195 10.371562967390352 0.9396247836840963 0 0 0
1718 1 1.8829472198195276 8.203688040077777 1.4291449233457731 0 0 0
1577 1 -1.976303193018421 13.721057980698655 2.3366698057554656 0 0 0
1578 1 -0.6896886816754897 11.556674560732361 2.825928599778026 0 0 0
1623 1 0.5958426392803446 13.72607133103345 2.339562505128302 0 0 0
1624 1 1.8825582070601048 11.556576531871706 2.8284621611195346 0 0 0
1670 1 -0.6909908874130753 12.537834173252328 0.44831140041453466 0 0 0
1716 1 1.881387552844017 12.53811624069633 0.44952208274524824 0 0 0
1576 1 -0.6914005583715676 15.884471852667874 1.8482230667874129 0 0 0
1622 1 1.8828043443676739 15.885214211783989 1.8440930441824783 0 0 0
1483 1 1.881690009784908 19.240664070898006 3.2502174085431292 0 0 0
1529 1 -0.6915767584751286 19.235991594527775 3.247960021724536 0 0 0
1574 1 -0.6955049084048605 20.21217752993479 0.8689406271026054 0 0 0
1575 1 -1.9802902499861321 18.046923559999808 1.3667678834998815 0 0 0
1620 1 1.8762681600923001 20.211277701834774 0.8685492166942783 0 0 0
1621 1 0.5933337896379943 18.05281476700472 1.3510534022550655 0 0 0
1481 1 1.8749220735233194 23.560863637091078 2.254118342769569 0 0 0
1482 1 0.5914905613388648 21.395609092040562 2.7566459029809494 0 0 0
1527 1 -0.699178012500673 23.549511318621658 2.284394363618728 0 0 0
1528 1 -1.9816480426949197 21.39509961017306 2.756660899925599 0 0 0
1573 1 -1.9880309255107393 22.363625479936555 0.3752323804057321 0 0 0
1619 1 0.5894283219868232 22.36882399192208 0.3775599513988189 0 0 0
1387 1 -0.7024856666492908 26.907030006809705 3.665032295126468 0 0 0
1433 1 1.8706974270691406 26.907902715114954 3.665383119103819 0 0 0
1479 1 1.8658502136507564 27.867265393738798 1.2786858746470373 0 0 0
1480 1 0.5855986865528462 25.71641981361378 1.7801491854341447 0 0 0
1525 1 -0.7073069623590054 27.861699037840136 1.2769747406294265 0 0 0
1526 1 -1.9916566857669415 25.71689073812862 1.7804544938574178 0 0 0
1385 1 -0.7139291181707812 31.213394427802353 2.6751676749868416 0 0 0
1386 1 0.578227892978395 29.059423758339477 3.167640645197551 0 0 0
1431 1 1.859069511722503 31.213078024088222 2.6752015122663915 0 0 0
1432 1 -1.9941522786694534 29.059478369667673 3.1675983611459038 0 0 0
1478 1 0.5747239186496875 30.016477040644787 0.7864277341652283 0 0 0
1524 1 -1.9984763742304403 30.016729522909937 0.7864355975136932 0 0 0
1384 1 0.5663432862681615 33.36703112311771 2.1814454706138395 0 0 0
1430 1 -2.006922938239133 33.36600030690694 2.184412974889188 0 0 0
1477 1 1.8566524612610056 32.16628129142719 0.29695774429032584 0 0 0
1523 1 -0.7157364521481958 32.16610163139782 0.2966544504480839 0 0 0
1289 1 -0.7403317441803555 38.931831088585994 3.0652391735631324 0 0 0
1290 1 -2.0193999543744066 36.7563572075536 3.561823925727433 0 0 0
1335 1 1.8332171378203685 38.93158310813542 3.0649132799904213 0 0 0
1336 1 0.5537230226854685 36.75661796945566 3.5620568983694545 0 0 0
1382 1 0.5563395941202285 37.6743753839402 1.207096643052388 0 0 0
1383 1 -0.72555406918029 35.519146543669876 1.6934023339664888 0 0 0
1428 1 -2.01607201364512 37.67378063649685 1.2066588187554004 0 0 0
1429 1 1.8468774878750054 35.51938466218527 1.6932821473099215 0 0 0
1288 1 -2.030098681811321 41.11640570894333 2.5622153592737282 0 0 0
1334 1 0.5441495540263029 41.115296717224986 2.5621769368745997 0 0 0
1380 1 0.557908099829903 41.97590697829849 0.21159886842726458 0 0 0
1381 1 -0.7315901876809545 39.83063146670016 0.71951682066488 0 0 0
1426 1 -2.0166919708391577 41.97723831459512 0.21179911075140373 0 0 0
1427 1 1.8427940874634108 39.82620664952394 0.7176869378350056 0 0 0
1286 1 -2.0215011296122096 45.43027520587029 1.3556689958565236 0 0 0
1287 2 -0.7382715428902207 43.30399811208125 2.01544818546518 0 0 0
1332 1 0.5536914061456479 45.444056527387794 1.3541385245476678 0 0 0
1333 1 1.8327275739647289 43.30273136312594 2.0166232470589414 0 0 0
1193 1 1.839455591075408 49.23134883153141 2.711281631655303 0 0 0
1194 1 1.8303707361536827 46.77273239527627 3.1238549362295176 0 0 0
1239 1 -0.7270604279010963 49.22877105062417 2.712823384731103 0 0 0
1240 1 -0.7425376367241693 46.76662284507573 3.122236232741867 0 0 0
1285 1 0.558670810788638 47.93945693208065 1.0756578814637388 0 0 0
1331 2 -2.0146966766965755 47.931391120350064 1.0787716414013393 1 0 0
6416 1 -0.7251139606026207 52.67612673624043 2.522572980818095 0 0 0
6457 1 1.8496195322659594 52.67526658280176 2.522317665974968 0 0 0
6497 1 -0.7127710386331272 52.89148883641445 0.021147022818494347 0 0 0
6498 1 0.5635171249726918 50.79419563506708 1.0526381255251982 0 0 0
6537 1 1.8607283692206298 52.891900395113694 0.02099935024987738 0 0 0
6538 1 -2.009338057722173 50.79328990213918 1.0524672821021506 0 0 0
6330 1 1.8571203206842724 56.34361379585456 3.043806759943203 0 0 0
6373 1 -0.7175920860945153 56.343014434251145 3.0433626229619546 0 0 0
6414 1 -0.7075510443586506 56.6430777273865 0.5154363909207144 0 0 0
6415 1 -2.0016291590657693 54.64775391733509 1.5173230566188025 0 0 0
6455 1 1.868028252189301 56.64209574101269 0.5161028048421883 0 0 0
6456 2 0.5716086971603656 54.6499796640187 1.517313870551475 0 0 0
6328 1 1.8748907409249218 60.29683163508348 1.00290756652144 0 0 0
6329 1 0.5801353835148433 58.30969416615894 2.028724969087018 0 0 0
6371 1 -0.6975035090557661 60.295164028142906 1.010989736006587 0 0 0
6372 1 -1.9927355252010952 58.315025341293584 2.02961291611704 0 0 0
6239 2 -0.6889767325291872 63.92054398839969 1.4680243209633075 0 0 0
6240 1 0.5914826527501824 61.937261453699975 2.5141502693151274 0 0 0
6283 2 1.8842404392244059 63.92400673027903 1.4714286214424583 0 0 0
6284 1 -1.981659247475151 61.93679245230012 2.51405177417701 0 0 0
9 1 -1.9406680195748345 0.03337982532525099 55.132557859048504 0 1 0
5 1 0.6325213644125915 0.03338657812836016 55.132580525653 0 1 0
6148 1 -0.6807960091416677 67.56000308827362 1.921266529280075 0 0 0
6149 1 -1.971071029241381 65.58901027616541 2.968227304431325 0 0 0
6193 1 1.8930108007168158 67.55947824344481 1.9226784352389255 0 0 0
6194 1 0.6013467945513691 65.58917961985756 2.96813300926518 0 0 0
6238 1 0.6020425044728406 65.90969429018892 0.42813870488155603 0 0 0
6282 1 -1.969836482632647 65.90919992439184 0.4280967685255502 0 0 0
6057 1 1.9006529397292635 71.19489873533773 2.3682500200307683 0 0 0
6102 1 -0.6732899461541816 71.1945967853742 2.3708628121152158 0 0 0
6147 1 -1.9631540010759558 69.53760632588677 0.8716344073805788 0 0 0
6192 1 0.6097850145955261 69.53651177822191 0.879103521531883 0 0 0
5963 1 -0.6667169255803432 74.82717082270942 2.810768546065385 0 0 0
6010 1 1.9062902274166966 74.82693878512336 2.810826340422218 0 0 0
6056 1 0.6158769569402175 73.16883475323674 1.322824105615021 0 0 0
6101 1 -1.9571467225397894 73.16933222478445 1.3231238298437367 0 0 0
9706 1 1.9237816670144738 12.082213295706454 86.49168691967633 0 0 0
9753 1 -0.649431474468734 12.077794721862658 86.48771907113127 0 0 0
5866 1 -0.6618815598369714 78.45625516384808 3.2482784097263004 0 0 0
5914 1 1.911117855687695 78.45631428832209 3.2482412617194285 0 0 0
5962 1 0.6207097775803379 76.79890243592861 1.7585102550688756 0 0 0
6009 1 -1.9525486232346092 76.79827621276934 1.7617307932925037 0 0 0
6055 1 1.9031288868597893 75.141052090491 0.2730654805143593 0 0 0
6100 1 -0.6684873835481944 75.14109861681064 0.27296655955198673 0 0 0
5865 1 -1.9484979561868814 80.4263535149374 2.1966336015420356 0 0 0
5913 1 0.6247112312621461 80.42658391928947 2.1967141815664117 0 0 0
5961 1 -0.6649611368559449 78.76937298171089 0.7097763425666395 0 0 0
6008 1 1.9075407128154014 78.76939346326648 0.7097713718610568 0 0 0
5766 1 0.6280062357147929 84.05191124696971 2.6285388223964365 0 0 0
5815 1 -1.945218381898252 84.05189714747196 2.6285893472623627 0 0 0
5863 1 -1.9485238742449726 84.36352461433775 0.08685912489747802 0 0 0
5864 1 -0.6619430508267671 82.39611484821572 1.1431980623201285 0 0 0
5911 1 0.6246928627123591 84.36336318897354 0.08670609397061822 0 0 0
5912 1 1.911396153069204 82.39611167331043 1.1431937980081512 0 0 0
5665 1 0.6306230695047316 87.67367015652106 3.056841978920469 0 0 0
5715 1 -1.9426145190677917 87.67393427017431 3.056748475679064 0 0 0
5764 1 0.6272174667601347 87.98411580159726 0.5133700791499002 0 0 0
5765 1 1.9142270537964645 86.01864168142329 1.571719403000285 0 0 0
5813 1 -1.946036589759516 87.98422675411858 0.5126529997164923 0 0 0
5814 1 -0.6590556034387821 86.01865416448473 1.5717048388521642 0 0 0
5562 1 -1.9405655172671818 91.29161258528077 3.4810775977624218 0 0 0
5613 1 0.6326025884528093 91.2922098735818 3.4810381563563113 0 0 0
5663 1 0.6292426955596733 91.60295895569425 0.9375246534223289 0 0 0
5664 1 -0.6566929725059618 89.63812706954685 1.9973441775431022 0 0 0
5713 1 -1.944019481709245 91.60281250903917 0.9374610372840967 0 0 0
5714 1 1.9164548692079642 89.63815865877801 1.9972161232591055 0 0 0
5560 1 -1.9421843915891026 95.21896004003806 1.3614132611378307 0 0 0
5561 1 -0.6553600615497391 93.25698107472166 2.4218137048852606 0 0 0
5611 1 0.6305324994590935 95.21983039078317 1.35809647575263 0 0 0
5612 1 1.9185970961682612 93.25689862038075 2.421562911395576 0 0 0
5455 1 0.6306173307627051 98.83055878846628 1.7813131749320457 0 0 0
5456 1 1.9200760639697685 96.87021955536676 2.8426802056817957 0 0 0
5507 1 -1.940282512107378 98.83230771589741 1.781153180642341 0 0 0
5508 1 -0.6543020669527557 96.86910700690878 2.8434461478702704 0 0 0
5559 1 -0.6572581012325345 97.18525672310592 0.29683989793122284 0 0 0
5610 1 1.9174051722059142 97.18127127030432 0.2966819797390587 0 0 0
1491 1 1.8867383106916202 1.9074907458977548 7.159216240360761 0 0 0
1537 1 -0.6865313791767915 1.9072373147745605 7.159175619543421 0 0 0
1582 1 -0.6879751596263078 2.8867604766111232 4.783239885089563 0 0 0
1583 1 -1.9741903066058033 0.7179367644127753 5.272351754419034 0 0 0
1628 1 1.8851641299513162 2.8870729942152464 4.783648920105061 0 0 0
1629 1 0.5990517882381391 0.7174940343682519 5.272214686496519 0 0 0
1489 1 1.885415761628995 6.242413791680339 6.180576525354089 0 0 0
1490 1 0.5992057947061971 4.076640120114994 6.670289865785465 0 0 0
1535 1 -0.6880433128285042 6.247394267737544 6.182785231871167 0 0 0
1536 1 -1.9730936255929064 4.076030263100483 6.670987235389629 0 0 0
1581 1 -1.9748548436336448 5.055207949088513 4.294280436832301 0 0 0
1627 1 0.5974291587935098 5.055403358980619 4.294063319024108 0 0 0
1487 1 1.8835066732078583 10.579670597520739 5.214733876778402 0 0 0
1488 1 0.5980069947866176 8.411032791191 5.693393617648357 0 0 0
1533 1 -0.6893550149390116 10.577656906038897 5.205539389846933 0 0 0
1534 1 -1.9766196341715843 8.411111210944444 5.693341661222153 0 0 0
1580 1 -0.6895144559672904 7.223579939092637 3.8050809710364897 0 0 0
1626 1 1.8838031633328778 7.222802506831194 3.804930799410197 0 0 0
1393 1 -0.6907247619076999 13.937002496914946 6.604961467903913 0 0 0
1394 1 0.5979947633746465 11.77040524314272 7.096733844145016 0 0 0
1439 2 1.881600623607351 13.941556219819724 6.599661209540365 0 0 0
1440 1 -1.976353349525866 11.772354141214066 7.092898775545585 0 0 0
1486 1 0.5959782575189323 12.73999843082915 4.7149666150791125 0 0 0
1532 1 -1.975856789240794 12.739970774480174 4.713694705310228 0 0 0
1392 1 0.5960392985581776 16.103556581682952 6.119759455146327 0 0 0
1438 1 -1.9744251590981665 16.107167544056814 6.108780443243983 0 0 0
1484 2 0.5997982489559823 17.067891852402223 3.741829881127816 0 0 0
1485 1 1.8858847620803236 14.905730324740128 4.223220050455445 0 0 0
1530 1 -1.9747164788781748 17.07277873015571 3.7383824705817243 0 0 0
1531 1 -0.6901049191225925 14.901830273736318 4.234825966906308 0 0 0
1390 1 0.5953929922848713 20.41953563249877 5.1366209520231045 0 0 0
1391 1 -0.6893126568893445 18.26651718431536 5.630134982229547 0 0 0
1436 1 -1.9764695300280175 20.424238873473712 5.1383678928322 0 0 0
1437 1 1.8855598936210167 18.266335210038186 5.630510219679095 0 0 0
1296 1 -1.9775028884805024 23.78570674332741 6.537841460209616 0 0 0
1297 1 -0.6881912373496393 21.623241065087477 7.019817737086754 0 0 0
1342 1 0.594481035070804 23.78651293400055 6.537034956529496 0 0 0
1343 1 1.8844433643714775 21.620776390405897 7.02698049745632 0 0 0
1388 1 0.5888124252907253 24.75059452643406 4.156703713862655 0 0 0
1389 1 -0.6934675530749713 22.585842488243483 4.651250295533774 0 0 0
1434 1 -1.9841017852274507 24.750558716542283 4.157234875162732 0 0 0
1435 2 1.8791388209991815 22.588371635611853 4.644518067778062 0 0 0
1294 1 -1.9877218250963429 28.106750571424776 5.549046543316307 0 0 0
1295 1 -0.6955839018490938 25.947182851482562 6.043282311563834 0 0 0
1340 1 0.5860937666089869 28.10670729208498 5.54906674855731 0 0 0
1341 1 1.8777730221026439 25.942502805896062 6.041424784950335 0 0 0
1201 1 0.5819341656733881 31.48372510271407 6.928681689552961 0 0 0
1247 1 -1.991256530555104 31.483591998371285 6.92891697944889 0 0 0
1293 1 -0.7072615940618479 30.26593014808647 5.051998688997769 0 0 0
1339 1 1.8658801935062386 30.265934537203005 5.051793330257555 0 0 0
1200 1 1.8591381225343253 33.65194792730861 6.4269726580818745 0 0 0
1246 1 -0.7140168758540639 33.65191363958124 6.4270001738905815 0 0 0
1291 1 -0.7237458080330114 34.58905147157354 4.058814189400588 0 0 0
1292 1 -2.001708337722666 32.426378227136674 4.556232716521033 0 0 0
1337 1 1.849241539330823 34.5891247292971 4.058753801672437 0 0 0
1338 1 0.5715367958100556 32.42672276716112 4.555279687874583 0 0 0
1198 1 1.8340990463644125 38.008207455707634 5.412364980732199 0 0 0
1199 1 0.560888549340166 35.825217772070864 5.921153858961596 0 0 0
1244 1 -0.7392492343743661 38.008513213105054 5.412475082057913 0 0 0
1245 1 -2.0122663243640546 35.82510816622815 5.921162175240764 0 0 0
1106 1 -0.7651935645611214 41.471554184597586 6.7168050882389405 0 0 0
1151 1 1.8075236181520893 41.474184474414464 6.712800352202883 0 0 0
1196 1 1.8134814162293884 42.42681641793274 4.372360199213025 0 0 0
1197 1 0.5346286273395608 40.20605139407602 4.899561120820543 0 0 0
1242 1 -0.7594746347748021 42.42220783411408 4.383114572536094 0 0 0
1243 1 -2.039284819999902 40.206364808055596 4.899438500838182 0 0 0
1104 1 -0.7808201375679045 46.042917266534715 5.589718773049201 0 0 0
1105 1 0.5027947942595957 43.7364801357671 6.184357587054142 0 0 0
1149 1 1.7926363797955867 46.04335380345782 5.589779904320248 0 0 0
1150 1 -2.0711749393905876 43.73646039570185 6.184217036338526 0 0 0
1195 1 0.5340545141819727 44.63554789347381 3.8194342078353287 0 0 0
1241 1 -2.0411534299719687 44.63445013294143 3.8200391369365136 0 0 0
1011 1 -0.7864256722239439 48.70666898580021 6.977385825369845 0 0 0
1057 1 1.7879206246485122 48.70678819178526 6.9775078767169605 0 0 0
1103 1 0.5277856748639712 48.31641694057663 4.798537204062752 0 0 0
1148 1 -2.0449322282111164 48.317987315436945 4.791692302273427 0 0 0
6332 1 1.830750396448468 52.601841462036504 5.220971060947455 0 0 0
6333 1 0.5117162046091236 50.65606322034542 6.2063300910149595 0 0 0
6375 1 -0.7443170784193408 52.602520330941786 5.2210907789914796 0 0 0
6376 1 -2.0613460344105565 50.6557899341011 6.205321682779149 0 0 0
6417 1 -2.0143926631476945 50.96262453902923 3.804970810988191 0 0 0
6458 1 0.5581218414415364 50.96568259068054 3.8070738012592944 0 0 0
6243 1 -0.7294524737157787 56.01224194661293 5.6182791451458085 0 0 0
6244 1 0.5399246288326891 54.12891171883378 6.7537507986577525 0 0 0
6287 1 1.8451181761770208 56.017905299271604 5.619427037189433 0 0 0
6288 1 -2.0342816575772598 54.12941482454347 6.7523632705546 0 0 0
6331 1 0.5569401666576411 54.39693778386809 4.056773099924806 0 0 0
6374 1 -2.0171741709928073 54.396032163648705 4.0447153589055524 0 0 0
6152 1 -0.7072220400935983 59.63944496901974 6.088911960665784 0 0 0
6197 2 1.865835117529754 59.63952465448468 6.0885872509059125 0 0 0
6241 1 -0.7028821829398099 59.95708799840715 3.554935725369633 0 0 0
6242 1 0.5716274638254147 57.97816732588752 4.5784268983044 0 0 0
6285 1 1.8694537352192482 59.95838410355226 3.542835577538561 0 0 0
6286 1 -1.9998834871894353 57.97880051724385 4.57841894541019 0 0 0
6061 1 1.8855726402090844 63.29015274792481 6.53819205752499 0 0 0
6106 1 -0.6876946411392583 63.29592345553801 6.538600312994043 0 0 0
6150 1 -0.6902741034551952 63.60613960263634 4.001948356055032 0 0 0
6151 1 -1.9831968941400204 61.62478494544397 5.0459579496822595 0 0 0
6195 1 1.8830418341336117 63.60560944928682 4.00280272424221 0 0 0
6196 1 0.5882967990397497 61.62522012647432 5.046123426422883 0 0 0
6059 1 1.8942602521012568 67.24782843183198 4.459077684262949 0 0 0
6060 1 0.6046878316416227 65.2700593908723 5.499730230226908 0 0 0
6104 1 -0.6791097918800898 67.24762401702812 4.4589640892968845 0 0 0
6105 1 -1.9700252502845044 65.27009743375157 5.499885787868596 0 0 0
5965 1 -0.6700630347598504 70.8802314487845 4.912244943033021 0 0 0
5966 1 0.6144875459566659 68.90722058184936 5.950840835856128 0 0 0
6012 1 1.903611099638263 70.8813168772378 4.904615761745536 0 0 0
6013 1 -1.9580094663109857 68.90725217586832 5.9500236728141225 0 0 0
6058 1 0.6105694652202831 69.22085580468318 3.414468388522325 0 0 0
6103 1 -1.9620499812419259 69.22104434872995 3.41187665549319 0 0 0
5868 1 -0.6627544521892645 74.51462623264176 5.347641401112054 0 0 0
5869 1 -1.948966347092605 72.54327491453282 6.3984178634354 0 0 0
5916 1 1.9107339392543008 74.51410158138772 5.347514685571351 0 0 0
5917 1 0.6224933332670307 72.54410261653908 6.393959310666926 0 0 0
5964 1 0.6181185633794808 72.85375478038127 3.8584509754764222 0 0 0
6011 1 -1.954469190613422 72.85382308409048 3.8599497094872968 0 0 0
5769 1 1.9161336548453434 78.14404397602945 5.7871695779875525 0 0 0
5770 1 0.6308489887262083 76.17238919963869 6.8369340384080814 0 0 0
5818 1 -0.6569419593074849 78.14376704501751 5.787257950357638 0 0 0
5819 1 -1.9432743499712346 76.17272478752264 6.837254869446048 0 0 0
5867 1 -1.9489019631021687 76.4857547264504 4.299221053988465 0 0 0
5915 1 0.6244509047092063 76.4857912513288 4.2982043950449595 0 0 0
5668 1 -0.6529886935232057 81.77225633625469 6.223192576964557 0 0 0
5718 1 1.9202535159035055 81.7722150616121 6.223191043881027 0 0 0
5768 1 0.6289588023463023 80.11413294233031 4.735930559033134 0 0 0
5817 1 -1.9442077014089574 80.11404468796525 4.735905989673008 0 0 0
5565 1 -0.6501695511489402 85.39742869523779 6.6561632158502055 0 0 0
5616 1 1.9231492071806737 85.3974467669044 6.656178781566355 0 0 0
5667 1 0.6324497902388285 83.74059491912868 5.169614434386045 0 0 0
5717 1 -1.9407838087624194 83.74055809079647 5.169634449296147 0 0 0
5767 1 1.9151017405272033 82.08351077434907 3.683202436416704 0 0 0
5816 1 -0.6581610038849397 82.08352993359426 3.6831998093979146 0 0 0
5460 1 1.9246940955778842 89.01934881343868 7.085517303016824 0 0 0
5512 1 -0.6476330974757794 89.01937120316946 7.085589003437597 0 0 0
5564 1 -1.9382217570424536 87.36389033879969 5.5998044157452895 0 0 0
5615 1 0.6349978528773722 87.36339250186201 5.5998344883706475 0 0 0
5666 1 -0.6552029520330346 85.70779230535616 4.1141186499916635 0 0 0
5716 1 1.918123126314994 85.7077903807536 4.114127924138452 0 0 0
5459 1 0.636848320334194 90.98738068301382 6.027590226466527 0 0 0
5511 1 -1.9363445088043698 90.98181663512507 6.027015562756275 0 0 0
5563 1 -0.6524359675288968 89.32909215814902 4.5420594709685504 0 0 0
5614 1 1.9198912544524191 89.32913592919904 4.542012260688561 0 0 0
5357 2 0.6385086008284679 94.6010851444653 6.452587530357456 0 0 0
5407 1 -1.9353314724942492 94.60097462917744 6.452667351823515 0 0 0
5457 1 0.6344745385457269 94.91019085906001 3.9036981349062114 0 0 0
5458 1 1.9229764703003198 92.94370673323795 4.965383875012085 0 0 0
5509 1 -1.9396555143187477 94.90873938851229 3.913851296467515 0 0 0
5510 1 -0.6521244187722184 92.94417702615026 4.965461867174919 0 0 0
5257 1 -1.9333222631655542 98.21289682697356 6.877192877980437 0 0 0
5306 1 0.6379799504541379 98.20711421836735 6.876719858657959 0 0 0
5355 1 0.6342495050173643 98.52179008021116 4.325067272546388 0 0 0
5356 1 -0.6510579969523753 96.56413472506688 5.390239772934451 0 0 0
5405 1 -1.9371958883277063 98.52291109148071 4.324964588446585 0 0 0
5406 1 1.9240958064822673 96.56977359479575 5.3897304438998885 0 0 0
1398 1 0.6014321755510569 3.0971717316619936 9.045304027240087 0 0 0
1399 1 -0.6857294977537692 0.9280196463179623 9.53465673767599 0 0 0
1444 1 -1.971620918255133 3.0954813420610776 9.048096040781392 0 0 0
1445 1 1.8881572898891867 0.9280842346590307 9.534642275442287 0 0 0
1304 1 -1.9698541608252929 6.462626671783424 10.445532608749163 0 0 0
1350 1 0.6044886857012651 6.456861942265507 10.443249001453466 0 0 0
1397 1 -0.6858646674052176 5.264568362285194 8.558646648814895 0 0 0
1443 1 1.8884940058152588 5.2639933177370635 8.558197551802868 0 0 0
1303 1 -0.6810110627838556 8.623100327846135 9.95683113885148 0 0 0
1349 1 1.8893438283396495 8.628338971613783 9.945538159917032 0 0 0
1395 2 -0.6902033251754219 9.604504780646627 7.591046675836694 0 0 0
1396 1 0.6009792064626975 7.429355144909496 8.06798266059491 0 0 0
1441 1 1.8835124950944715 9.602710011526804 7.583072535227139 0 0 0
1442 1 -1.974021773487749 7.429757909945495 8.068398281857288 0 0 0
1209 1 0.6041512847625204 14.161758969327193 10.8690340861642 0 0 0
1255 1 -1.9675266235195323 14.16200470855756 10.867514784719418 0 0 0
1301 1 -0.6851870828980391 12.963230202694342 8.97368119028923 0 0 0
1302 1 -1.9728908381139447 10.80265810925641 9.469071920230729 0 0 0
1347 1 1.8871648602590843 12.96602820606241 8.983403662944207 0 0 0
1348 1 0.6026788620310679 10.797508331171825 9.480786289257312 0 0 0
1208 1 1.8905364872209203 16.327837744381394 10.382515149878762 0 0 0
1254 1 -0.6823280418203977 16.328708238567586 10.382956062069551 0 0 0
1299 1 -0.6869693127249756 17.29564944951835 8.005638028183375 0 0 0
1300 1 -1.9718872102967613 15.132234891917685 8.493467461446903 0 0 0
1345 1 1.887225584628684 17.29027438709646 8.00325172978777 0 0 0
1346 1 0.5988016776323558 15.131415303327271 8.49715572663916 0 0 0
1206 1 1.8897913143128877 20.65835182096224 9.403206287079806 0 0 0
1207 1 0.6040470535268155 18.49197851276102 9.890582890624147 0 0 0
1252 1 -0.6840607467571154 20.6587604141844 9.400698651979624 0 0 0
1253 1 -1.9699988372001638 18.491809628350445 9.890612028618664 0 0 0
1298 1 -1.9735858061082876 19.45917912233099 7.517311676293737 0 0 0
1344 1 0.5999270683610175 19.458697284401037 7.517412061412543 0 0 0
1114 1 -0.6815615341647162 24.028181383490136 10.793604578481673 0 0 0
1159 1 1.8926265025091829 24.02796207557002 10.793452247297655 0 0 0
1205 1 0.6009452257684124 22.823206122744786 8.909899824078096 0 0 0
1251 1 -1.9715340648580046 22.821800669800364 8.912796198246951 0 0 0
1112 1 -0.6866998660473548 28.364644698577223 9.803147989432114 0 0 0
1113 1 0.603365506047911 26.195962524436023 10.299210345074014 0 0 0
1157 1 1.8862639130988341 28.364824597380963 9.803354733788794 0 0 0
1158 1 -1.9699780172459909 26.196441143313056 10.299328261088977 0 0 0
1203 1 0.5950668956710723 27.152781267170397 7.924317853701586 0 0 0
1204 1 1.8854066275351948 24.988189468711834 8.419856640825586 0 0 0
1249 1 -1.9789368559160827 27.15297594654227 7.924365425016188 0 0 0
1250 1 -0.6881904095785509 24.988656169026775 8.41987443011824 0 0 0
1111 1 0.5945240581675227 30.533613278127223 9.304207623345112 0 0 0
1156 1 -1.9786074394705804 30.533435909178394 9.304054049678534 0 0 0
1202 1 1.8757655245354299 29.318471350700232 7.428453709504011 0 0 0
1248 1 -0.6973609264875017 29.318103387440935 7.428346808630388 0 0 0
1018 1 -1.9783507457191019 33.911698593398974 10.672022432940066 0 0 0
1064 1 0.5949314658881977 33.912102502662954 10.670649092712761 0 0 0
1109 1 0.5765348540452425 34.87781167169803 8.29052652402249 0 0 0
1110 1 -0.6995882113281526 32.703664204846646 8.800150695212174 0 0 0
1154 1 -1.9966625653681378 34.87756798633509 8.290790706334747 0 0 0
1155 1 1.873743047680591 32.703638763476796 8.800093048056487 0 0 0
1016 1 -2.0059869981111493 38.245421615384025 9.63174192746928 0 0 0
1017 1 -0.7028483385357526 36.079851946127675 10.156752912996527 0 0 0
1062 1 0.567516293573191 38.24385395887363 9.633485176997704 0 0 0
1063 1 1.8708586503612648 36.07979573039715 10.156796138016961 0 0 0
1108 1 -0.7244567627595933 37.05851911438352 7.772805839839996 0 0 0
1153 1 1.8488103639840054 37.05834327501855 7.772778464501877 0 0 0
1014 1 -2.064121022537209 42.555346285937006 8.59176834074894 0 0 0
1015 1 -0.7439394181872317 40.40690418089008 9.110126684682145 0 0 0
1060 1 0.5094560355607347 42.55427269697622 8.594537084313858 0 0 0
1061 1 1.8282075344159412 40.40751868548966 9.109283720539452 0 0 0
1107 1 0.5434094065404975 39.253769638752296 7.248722664563371 0 0 0
1152 1 -2.0302339680472326 39.25433581257303 7.2483630203407525 0 0 0
924 1 0.3882264825720916 45.95284655832573 10.026757295786728 0 0 0
925 1 1.7906261181035128 43.73950504006171 10.460044742714063 0 0 0
968 1 -2.1850187781617474 45.952428553711634 10.027091980775607 0 0 0
969 1 -0.781820216584445 43.739942468596226 10.459687741141982 0 0 0
1013 1 -0.8074282699844482 44.683283326681824 8.134293991412646 0 0 0
1059 1 1.7653469286466317 44.68340197090882 8.134712544320696 0 0 0
923 1 1.7033043441355027 48.090219193896786 9.471046275267426 0 0 0
967 1 -0.8700155129330647 48.090230150977135 9.471065774532704 0 0 0
1012 1 -2.086099599658406 46.73972604318807 7.653834339876057 0 0 0
1058 1 0.4870939876396145 46.74026110225017 7.653366031964028 0 0 0
6156 1 -0.871243420665613 51.65587594258929 10.365204294156815 0 0 0
6201 1 1.7019940789111494 51.655748711838434 10.365282614094118 0 0 0
6245 1 -0.7812755596701324 52.16663824313558 7.80016322835358 0 0 0
6246 1 0.4606079342295286 50.15093987627929 8.724670223243185 0 0 0
6289 1 1.7922045821848311 52.16630288910549 7.800297369320042 0 0 0
6290 1 -2.1125208002464326 50.151099353232944 8.724585558297061 0 0 0
6154 1 -0.7428500056486091 55.71724623844737 8.249275529013055 0 0 0
6155 1 -2.0698518546518585 53.72232675150619 9.336534680945118 0 0 0
6199 1 1.8304733168108076 55.7179236711905 8.249516891006145 0 0 0
6200 1 0.5035168788813947 53.722128793542446 9.33701821945931 0 0 0
6063 1 1.8656350750920767 59.346862488099624 8.632153574088997 0 0 0
6064 1 0.5544825568773838 57.39059464763753 9.705257752830482 0 0 0
6108 1 -0.7074585366870042 59.34778578222321 8.62133896569978 0 0 0
6109 1 -2.0179181745981034 57.39065999278894 9.705619032244657 0 0 0
6153 1 -2.0074017357658565 57.65772394454839 7.1418893615874675 0 0 0
6198 1 0.564006678985719 57.65757679141295 7.141316033127843 0 0 0
5969 1 -0.6716035876465744 62.999345855389436 9.076237467138654 0 0 0
5970 1 0.6188164967170287 61.041675205750806 10.118162714527637 0 0 0
6016 1 1.9017594511753102 62.99853365469791 9.076446366322953 0 0 0
6017 1 -1.9536207274667778 61.041358918753346 10.117773931009383 0 0 0
6062 1 0.5907329654162862 61.321854632010904 7.582795388388605 0 0 0
6107 1 -1.9807866472638724 61.32163328828678 7.582424232840396 0 0 0
5872 1 -0.6555227878474618 66.62123638189505 9.53464318512264 0 0 0
5920 1 1.9169696202967337 66.622179971067 9.535151636757535 0 0 0
5967 1 -0.6720404040869485 66.93274045011833 6.992899089627053 0 0 0
5968 1 0.6151947274543214 64.96368222147252 8.03427090581156 0 0 0
6014 1 1.9011704994815743 66.93830757736234 6.993938660705878 0 0 0
6015 1 -1.9596801075991206 64.96392394143349 8.034517240074496 0 0 0
5773 1 1.9286909346149625 70.2500496861547 9.984187619968358 0 0 0
5822 1 -0.6473949695775502 70.25257280062884 9.971244588596573 0 0 0
5870 1 -0.6645777638577774 70.56859185802946 7.443533560698572 0 0 0
5871 1 -1.9457500034388346 68.58951016559384 8.48894379447112 0 0 0
5918 2 1.9081863231107496 70.57089070989853 7.451947614804675 0 0 0
5919 1 0.6254925568658749 68.58979682187535 8.489194134180371 0 0 0
5672 1 -0.6424159164252335 73.8956272854325 10.424522519171765 0 0 0
5722 1 1.9326666543221105 73.89547671284042 10.423770806525457 0 0 0
5771 1 1.9187741366099484 74.19727394811846 7.885449654198327 0 0 0
5772 1 0.6323610287333572 72.2338458100618 8.932067229494406 0 0 0
5820 1 -0.6555319144915009 74.20297968483392 7.886181588034013 0 0 0
5821 1 -1.9380625770503521 72.23135720213914 8.945083694583342 0 0 0
5670 1 -0.6493081979678679 77.83305384995786 8.325440567948661 0 0 0
5671 1 0.6406597264548388 75.86280686026973 9.37396451939544 0 0 0
5720 1 1.9237231341584615 77.83351001485033 8.32553404089713 0 0 0
5721 1 -1.9333560288617968 75.86350435851251 9.3743679575222 0 0 0
5567 1 -0.6460723439807715 81.46170808553298 8.763330456086377 0 0 0
5568 1 -1.929655858773805 79.49227750923555 9.814637753394857 0 0 0
5618 1 1.9272042062734505 81.4616586436477 8.76331599142595 0 0 0
5619 1 0.64348272353001 79.49255480090694 9.814564279979269 0 0 0
5669 1 0.6350968023378711 79.80315414530548 7.275126036564779 0 0 0
5719 1 -1.9380334048453245 79.80306540858956 7.275144818149359 0 0 0