LAMMPS data file via write_data, version 2 Apr 2025, timestep = 0, units = metal

14782 atoms
2 atom types

-2.573223 2.573223 xlo xhi
0 200 ylo yhi
0 173.205081 zlo zhi

Masses

1 63.546
2 58.693

Atoms # atomic

1 1 -0.643306 1.086992 56.844884 0 0 0
2 1 1.929917 1.086992 56.844884 0 0 0
3 1 0.643306 4.24438 53.974349 0 0 0
4 1 -0.643306 2.071104 54.467279 0 0 0
7 1 -1.929917 4.24438 53.974349 0 0 0
8 1 1.929917 2.071104 54.467279 0 0 0
11 1 0.643306 13.921594 49.625024 0 0 0
12 1 1.929917 11.748319 50.117955 0 0 0
13 2 0.643306 9.575043 50.610885 0 0 0
14 1 1.929917 7.401767 51.103815 0 0 0
15 1 0.643306 5.228491 51.596745 0 0 0
16 1 1.929917 3.055215 52.089675 0 0 0
17 1 0.643306 0.88194 52.582605 0 0 0
21 1 -1.929917 13.921594 49.625024 0 0 0
22 1 -0.643306 11.748319 50.117955 0 0 0
23 1 -1.929917 9.575043 50.610885 0 0 0
24 1 -0.643306 7.401767 51.103815 0 0 0
25 1 -1.929917 5.228491 51.596745 0 0 0
26 1 -0.643306 3.055215 52.089675 0 0 0
27 1 -1.929917 0.88194 52.582605 0 0 0
31 1 -0.643306 17.078982 46.75449 0 0 0
32 1 -1.929917 14.905706 47.24742 0 0 0
33 1 -0.643306 12.73243 47.74035 0 0 0
34 1 -1.929917 10.559154 48.233281 0 0 0
35 1 -0.643306 8.385878 48.726211 0 0 0
36 1 -1.929917 6.212603 49.219141 0 0 0
37 1 -0.643306 4.039327 49.712071 0 0 0
38 1 -1.929917 1.866051 50.205001 0 0 0
43 1 1.929917 17.078982 46.75449 0 0 0
44 1 0.643306 14.905706 47.24742 0 0 0
45 1 1.929917 12.73243 47.74035 0 0 0
46 1 0.643306 10.559154 48.233281 0 0 0
47 1 1.929917 8.385878 48.726211 0 0 0
48 1 0.643306 6.212603 49.219141 0 0 0
49 1 1.929917 4.039327 49.712071 0 0 0
50 1 0.643306 1.866051 50.205001 0 0 0
55 1 0.643306 24.582921 42.898095 0 0 0
56 1 -0.643306 22.409645 43.391026 0 0 0
57 1 0.643306 20.236369 43.883956 0 0 0
58 1 -0.643306 18.063093 44.376886 0 0 0
59 1 0.643306 15.889817 44.869816 0 0 0
60 1 -0.643306 13.716542 45.362746 0 0 0
61 1 0.643306 11.543266 45.855676 0 0 0
62 1 -0.643306 9.36999 46.348607 0 0 0
63 1 0.643306 7.196714 46.841537 0 0 0
64 1 -0.643306 5.023438 47.334467 0 0 0
65 1 0.643306 2.850163 47.827397 0 0 0
66 1 -0.643306 0.676887 48.320327 0 0 0
72 1 -1.929917 24.582921 42.898095 0 0 0
73 1 1.929917 22.409645 43.391026 0 0 0
74 1 -1.929917 20.236369 43.883956 0 0 0
75 1 1.929917 18.063093 44.376886 0 0 0
76 1 -1.929917 15.889817 44.869816 0 0 0
77 1 1.929917 13.716542 45.362746 0 0 0
78 1 -1.929917 11.543266 45.855676 0 0 0
79 1 1.929917 9.36999 46.348607 0 0 0
80 1 -1.929917 7.196714 46.841537 0 0 0
81 1 1.929917 5.023438 47.334467 0 0 0
82 1 -1.929917 2.850163 47.827397 0 0 0
83 1 1.929917 0.676887 48.320327 0 0 0
89 1 0.643306 29.913584 39.534631 0 0 0
90 1 1.929917 27.740308 40.027561 0 0 0
91 1 0.643306 25.567032 40.520491 0 0 0
92 1 1.929917 23.393756 41.013421 0 0 0
93 1 0.643306 21.22048 41.506352 0 0 0
94 1 1.929917 19.047205 41.999282 0 0 0
95 1 0.643306 16.873929 42.492212 0 0 0
96 1 1.929917 14.700653 42.985142 0 0 0
97 1 0.643306 12.527377 43.478072 0 0 0
98 1 1.929917 10.354101 43.971002 0 0 0
99 1 0.643306 8.180826 44.463933 0 0 0
100 1 1.929917 6.00755 44.956863 0 0 0
101 1 0.643306 3.834274 45.449793 0 0 0
102 1 1.929917 1.660998 45.942723 0 0 0
110 1 -1.929917 29.913584 39.534631 0 0 0
111 1 -0.643306 27.740308 40.027561 0 0 0
112 1 -1.929917 25.567032 40.520491 0 0 0
113 1 -0.643306 23.393756 41.013421 0 0 0
114 1 -1.929917 21.22048 41.506352 0 0 0
115 1 -0.643306 19.047205 41.999282 0 0 0
116 1 -1.929917 16.873929 42.492212 0 0 0
117 1 -0.643306 14.700653 42.985142 0 0 0
118 1 -1.929917 12.527377 43.478072 0 0 0
119 1 -0.643306 10.354101 43.971002 0 0 0
120 1 -1.929917 8.180826 44.463933 0 0 0
121 1 -0.643306 6.00755 44.956863 0 0 0
122 1 -1.929917 3.834274 45.449793 0 0 0
123 1 -0.643306 1.660998 45.942723 0 0 0
131 1 -0.643306 37.417523 35.678236 0 0 0
132 1 -1.929917 35.244247 36.171166 0 0 0
133 1 -0.643306 33.070971 36.664097 0 0 0
134 1 -1.929917 30.897695 37.157027 0 0 0
135 1 -0.643306 28.724419 37.649957 0 0 0
136 1 -1.929917 26.551144 38.142887 0 0 0
137 1 -0.643306 24.377868 38.635817 0 0 0
138 1 -1.929917 22.204592 39.128747 0 0 0
139 1 -0.643306 20.031316 39.621678 0 0 0
140 1 -1.929917 17.85804 40.114608 0 0 0
141 1 -0.643306 15.684765 40.607538 0 0 0
142 1 -1.929917 13.511489 41.100468 0 0 0
143 1 -0.643306 11.338213 41.593398 0 0 0
144 1 -1.929917 9.164937 42.086328 0 0 0
145 1 -0.643306 6.991661 42.579259 0 0 0
146 1 -1.929917 4.818386 43.072189 0 0 0
147 1 -0.643306 2.64511 43.565119 0 0 0
148 1 -1.929917 0.471834 44.058049 0 0 0
156 1 1.929917 37.417523 35.678236 0 0 0
157 1 0.643306 35.244247 36.171166 0 0 0
158 1 1.929917 33.070971 36.664097 0 0 0
159 1 0.643306 30.897695 37.157027 0 0 0
160 1 1.929917 28.724419 37.649957 0 0 0
161 1 0.643306 26.551144 38.142887 0 0 0
162 1 1.929917 24.377868 38.635817 0 0 0
163 1 0.643306 22.204592 39.128747 0 0 0
164 1 1.929917 20.031316 39.621678 0 0 0
165 1 0.643306 17.85804 40.114608 0 0 0
166 1 1.929917 15.684765 40.607538 0 0 0
167 1 0.643306 13.511489 41.100468 0 0 0
168 1 1.929917 11.338213 41.593398 0 0 0
169 1 0.643306 9.164937 42.086328 0 0 0
170 1 1.929917 6.991661 42.579259 0 0 0
171 1 0.643306 4.818386 43.072189 0 0 0
172 1 1.929917 2.64511 43.565119 0 0 0
173 1 0.643306 0.471834 44.058049 0 0 0
181 1 -0.643306 42.748186 32.314772 0 0 0
182 1 0.643306 40.57491 32.807702 0 0 0
183 1 -0.643306 38.401634 33.300632 0 0 0
184 1 0.643306 36.228358 33.793562 0 0 0
185 1 -0.643306 34.055082 34.286492 0 0 0
186 1 0.643306 31.881807 34.779423 0 0 0
187 1 -0.643306 29.708531 35.272353 0 0 0
188 1 0.643306 27.535255 35.765283 0 0 0
189 1 -0.643306 25.361979 36.258213 0 0 0
190 1 0.643306 23.188703 36.751143 0 0 0
191 1 -0.643306 21.015428 37.244073 0 0 0
192 1 0.643306 18.842152 37.737004 0 0 0
193 1 -0.643306 16.668876 38.229934 0 0 0
194 2 0.643306 14.4956 38.722864 0 0 0
195 1 -0.643306 12.322325 39.215794 0 0 0
196 1 0.643306 10.149049 39.708724 0 0 0
197 1 -0.643306 7.975773 40.201654 0 0 0
198 1 0.643306 5.802497 40.694585 0 0 0
199 1 -0.643306 3.629221 41.187515 0 0 0
200 1 0.643306 1.455946 41.680445 0 0 0
210 1 1.929917 42.748186 32.314772 0 0 0
211 1 -1.929917 40.57491 32.807702 0 0 0
212 1 1.929917 38.401634 33.300632 0 0 0
213 1 -1.929917 36.228358 33.793562 0 0 0
214 1 1.929917 34.055082 34.286492 0 0 0
215 1 -1.929917 31.881807 34.779423 0 0 0
216 2 1.929917 29.708531 35.272353 0 0 0
217 1 -1.929917 27.535255 35.765283 0 0 0
218 1 1.929917 25.361979 36.258213 0 0 0
219 1 -1.929917 23.188703 36.751143 0 0 0
220 1 1.929917 21.015428 37.244073 0 0 0
221 1 -1.929917 18.842152 37.737004 0 0 0
222 1 1.929917 16.668876 38.229934 0 0 0
223 1 -1.929917 14.4956 38.722864 0 0 0
224 1 1.929917 12.322325 39.215794 0 0 0
225 1 -1.929917 10.149049 39.708724 0 0 0
226 1 1.929917 7.975773 40.201654 0 0 0
227 1 -1.929917 5.802497 40.694585 0 0 0
228 1 1.929917 3.629221 41.187515 0 0 0
229 1 -1.929917 1.455946 41.680445 0 0 0
239 1 1.929917 48.078849 28.951307 0 0 0
240 1 0.643306 45.905573 29.444237 0 0 0
241 1 1.929917 43.732297 29.937168 0 0 0
242 1 0.643306 41.559021 30.430098 0 0 0
243 1 1.929917 39.385746 30.923028 0 0 0
244 1 0.643306 37.21247 31.415958 0 0 0
245 1 1.929917 35.039194 31.908888 0 0 0
246 1 0.643306 32.865918 32.401818 0 0 0
247 1 1.929917 30.692642 32.894749 0 0 0
248 1 0.643306 28.519367 33.387679 0 0 0
249 1 1.929917 26.346091 33.880609 0 0 0
250 1 0.643306 24.172815 34.373539 0 0 0
251 1 1.929917 21.999539 34.866469 0 0 0
252 1 0.643306 19.826263 35.359399 0 0 0
253 1 1.929917 17.652988 35.85233 0 0 0
254 1 0.643306 15.479712 36.34526 0 0 0
255 1 1.929917 13.306436 36.83819 0 0 0
256 1 0.643306 11.13316 37.33112 0 0 0
257 1 1.929917 8.959884 37.82405 0 0 0
258 1 0.643306 6.786609 38.31698 0 0 0
259 1 1.929917 4.613333 38.809911 0 0 0
260 1 0.643306 2.440057 39.302841 0 0 0
261 1 1.929917 0.266781 39.795771 0 0 0
272 1 -0.643306 48.078849 28.951307 0 0 0
273 1 -1.929917 45.905573 29.444237 0 0 0
274 1 -0.643306 43.732297 29.937168 0 0 0
275 1 -1.929917 41.559021 30.430098 0 0 0
276 1 -0.643306 39.385746 30.923028 0 0 0
277 1 -1.929917 37.21247 31.415958 0 0 0
278 1 -0.643306 35.039194 31.908888 0 0 0
279 1 -1.929917 32.865918 32.401818 0 0 0
280 1 -0.643306 30.692642 32.894749 0 0 0
281 2 -1.929917 28.519367 33.387679 0 0 0
282 1 -0.643306 26.346091 33.880609 0 0 0
283 1 -1.929917 24.172815 34.373539 0 0 0
284 1 -0.643306 21.999539 34.866469 0 0 0
285 1 -1.929917 19.826263 35.359399 0 0 0
286 1 -0.643306 17.652988 35.85233 0 0 0
287 1 -1.929917 15.479712 36.34526 0 0 0
288 1 -0.643306 13.306436 36.83819 0 0 0
289 1 -1.929917 11.13316 37.33112 0 0 0
290 1 -0.643306 8.959884 37.82405 0 0 0
291 1 -1.929917 6.786609 38.31698 0 0 0
292 1 -0.643306 4.613333 38.809911 0 0 0
293 1 -1.929917 2.440057 39.302841 0 0 0
294 1 -0.643306 0.266781 39.795771 0 0 0
305 1 -0.643306 49.06296 26.573703 0 0 0
306 1 -1.929917 46.889684 27.066633 0 0 0
307 1 -0.643306 44.716409 27.559563 0 0 0
308 1 -1.929917 42.543133 28.052494 0 0 0
309 1 -0.643306 40.369857 28.545424 0 0 0
310 1 -1.929917 38.196581 29.038354 0 0 0
311 1 -0.643306 36.023305 29.531284 0 0 0
312 1 -1.929917 33.85003 30.024214 0 0 0
313 1 -0.643306 31.676754 30.517144 0 0 0
314 1 -1.929917 29.503478 31.010075 0 0 0
315 1 -0.643306 27.330202 31.503005 0 0 0
316 1 -1.929917 25.156927 31.995935 0 0 0
317 1 -0.643306 22.983651 32.488865 0 0 0
318 1 -1.929917 20.810375 32.981795 0 0 0
319 1 -0.643306 18.637099 33.474725 0 0 0
320 2 -1.929917 16.463823 33.967656 0 0 0
321 1 -0.643306 14.290548 34.460586 0 0 0
322 1 -1.929917 12.117272 34.953516 0 0 0
323 1 -0.643306 9.943996 35.446446 0 0 0
324 1 -1.929917 7.77072 35.939376 0 0 0
325 1 -0.643306 5.597444 36.432306 0 0 0
326 1 -1.929917 3.424169 36.925237 0 0 0
327 1 -0.643306 1.250893 37.418167 0 0 0
340 1 1.929917 49.06296 26.573703 0 0 0
341 1 0.643306 46.889684 27.066633 0 0 0
342 1 1.929917 44.716409 27.559563 0 0 0
343 1 0.643306 42.543133 28.052494 0 0 0
344 1 1.929917 40.369857 28.545424 0 0 0
345 1 0.643306 38.196581 29.038354 0 0 0
346 1 1.929917 36.023305 29.531284 0 0 0
347 1 0.643306 33.85003 30.024214 0 0 0
348 1 1.929917 31.676754 30.517144 0 0 0
349 1 0.643306 29.503478 31.010075 0 0 0
350 1 1.929917 27.330202 31.503005 0 0 0
351 1 0.643306 25.156927 31.995935 0 0 0
352 1 1.929917 22.983651 32.488865 0 0 0
353 1 0.643306 20.810375 32.981795 0 0 0
354 1 1.929917 18.637099 33.474725 0 0 0
355 1 0.643306 16.463823 33.967656 0 0 0
356 1 1.929917 14.290548 34.460586 0 0 0
357 1 0.643306 12.117272 34.953516 0 0 0
358 1 1.929917 9.943996 35.446446 0 0 0
359 1 0.643306 7.77072 35.939376 0 0 0
360 1 1.929917 5.597444 36.432306 0 0 0
361 1 0.643306 3.424169 36.925237 0 0 0
362 1 1.929917 1.250893 37.418167 0 0 0
375 1 0.643306 47.873796 24.689029 0 0 0
376 1 -0.643306 45.70052 25.181959 0 0 0
377 1 0.643306 43.527244 25.674889 0 0 0
378 1 -0.643306 41.353969 26.16782 0 0 0
379 1 0.643306 39.180693 26.66075 0 0 0
380 1 -0.643306 37.007417 27.15368 0 0 0
381 1 0.643306 34.834141 27.64661 0 0 0
382 1 -0.643306 32.660865 28.13954 0 0 0
383 1 0.643306 30.48759 28.63247 0 0 0
384 1 -0.643306 28.314314 29.125401 0 0 0
385 1 0.643306 26.141038 29.618331 0 0 0
386 1 -0.643306 23.967762 30.111261 0 0 0
387 1 0.643306 21.794486 30.604191 0 0 0
388 1 -0.643306 19.621211 31.097121 0 0 0
389 1 0.643306 17.447935 31.590051 0 0 0
390 1 -0.643306 15.274659 32.082982 0 0 0
391 1 0.643306 13.101383 32.575912 0 0 0
392 1 -0.643306 10.928107 33.068842 0 0 0
393 1 0.643306 8.754832 33.561772 0 0 0
394 1 -0.643306 6.581556 34.054702 0 0 0
395 1 0.643306 4.40828 34.547632 0 0 0
396 1 -0.643306 2.235004 35.040563 0 0 0
397 1 0.643306 0.061728 35.533493 0 0 0
410 1 -1.929917 47.873796 24.689029 0 0 0
411 1 1.929917 45.70052 25.181959 0 0 0
412 1 -1.929917 43.527244 25.674889 0 0 0
413 1 1.929917 41.353969 26.16782 0 0 0
414 1 -1.929917 39.180693 26.66075 0 0 0
415 1 1.929917 37.007417 27.15368 0 0 0
416 1 -1.929917 34.834141 27.64661 0 0 0
417 1 1.929917 32.660865 28.13954 0 0 0
418 1 -1.929917 30.48759 28.63247 0 0 0
419 1 1.929917 28.314314 29.125401 0 0 0
420 1 -1.929917 26.141038 29.618331 0 0 0
421 1 1.929917 23.967762 30.111261 0 0 0
422 1 -1.929917 21.794486 30.604191 0 0 0
423 1 1.929917 19.621211 31.097121 0 0 0
424 1 -1.929917 17.447935 31.590051 0 0 0
425 1 1.929917 15.274659 32.082982 0 0 0
426 1 -1.929917 13.101383 32.575912 0 0 0
427 1 1.929917 10.928107 33.068842 0 0 0
428 1 -1.929917 8.754832 33.561772 0 0 0
429 1 1.929917 6.581556 34.054702 0 0 0
430 1 -1.929917 4.40828 34.547632 0 0 0
431 1 1.929917 2.235004 35.040563 0 0 0
432 1 -1.929917 0.061728 35.533493 0 0 0
445 1 0.643306 48.857907 22.311425 0 0 0
446 1 1.929917 46.684632 22.804355 0 0 0
447 1 0.643306 44.511356 23.297285 0 0 0
448 1 1.929917 42.33808 23.790215 0 0 0
449 1 0.643306 40.164804 24.283146 0 0 0
450 1 1.929917 37.991528 24.776076 0 0 0
451 1 0.643306 35.818253 25.269006 0 0 0
452 1 1.929917 33.644977 25.761936 0 0 0
453 1 0.643306 31.471701 26.254866 0 0 0
454 1 1.929917 29.298425 26.747796 0 0 0
455 1 0.643306 27.12515 27.240727 0 0 0
456 1 1.929917 24.951874 27.733657 0 0 0
457 1 0.643306 22.778598 28.226587 0 0 0
458 1 1.929917 20.605322 28.719517 0 0 0
459 1 0.643306 18.432046 29.212447 0 0 0
460 1 1.929917 16.258771 29.705377 0 0 0
461 1 0.643306 14.085495 30.198308 0 0 0
462 1 1.929917 11.912219 30.691238 0 0 0
463 1 0.643306 9.738943 31.184168 0 0 0
464 1 1.929917 7.565667 31.677098 0 0 0
465 1 0.643306 5.392392 32.170028 0 0 0
466 2 1.929917 3.219116 32.662958 0 0 0
467 1 0.643306 1.04584 33.155889 0 0 0
482 1 -1.929917 48.857907 22.311425 0 0 0
483 1 -0.643306 46.684632 22.804355 0 0 0
484 1 -1.929917 44.511356 23.297285 0 0 0
485 1 -0.643306 42.33808 23.790215 0 0 0
486 1 -1.929917 40.164804 24.283146 0 0 0
487 1 -0.643306 37.991528 24.776076 0 0 0
488 1 -1.929917 35.818253 25.269006 0 0 0
489 1 -0.643306 33.644977 25.761936 0 0 0
490 1 -1.929917 31.471701 26.254866 0 0 0
491 1 -0.643306 29.298425 26.747796 0 0 0
492 1 -1.929917 27.12515 27.240727 0 0 0
493 1 -0.643306 24.951874 27.733657 0 0 0
494 1 -1.929917 22.778598 28.226587 0 0 0
495 1 -0.643306 20.605322 28.719517 0 0 0
496 1 -1.929917 18.432046 29.212447 0 0 0
497 1 -0.643306 16.258771 29.705377 0 0 0
498 1 -1.929917 14.085495 30.198308 0 0 0
499 1 -0.643306 11.912219 30.691238 0 0 0
500 1 -1.929917 9.738943 31.184168 0 0 0
501 1 -0.643306 7.565667 31.677098 0 0 0
502 1 -1.929917 5.392392 32.170028 0 0 0
503 1 -0.643306 3.219116 32.662958 0 0 0
504 2 -1.929917 1.04584 33.155889 0 0 0
519 1 -1.929917 49.842019 19.933821 0 0 0
520 1 -0.643306 47.668743 20.426751 0 0 0
521 1 -1.929917 45.495467 20.919681 0 0 0
522 1 -0.643306 43.322192 21.412611 0 0 0
523 1 -1.929917 41.148916 21.905541 0 0 0
524 1 -0.643306 38.97564 22.398472 0 0 0
525 1 -1.929917 36.802364 22.891402 0 0 0
526 1 -0.643306 34.629088 23.384332 0 0 0
527 1 -1.929917 32.455813 23.877262 0 0 0
528 1 -0.643306 30.282537 24.370192 0 0 0
529 1 -1.929917 28.109261 24.863122 0 0 0
530 1 -0.643306 25.935985 25.356053 0 0 0
531 1 -1.929917 23.762709 25.848983 0 0 0
532 1 -0.643306 21.589434 26.341913 0 0 0
533 1 -1.929917 19.416158 26.834843 0 0 0
534 1 -0.643306 17.242882 27.327773 0 0 0
535 1 -1.929917 15.069606 27.820703 0 0 0
536 2 -0.643306 12.89633 28.313634 0 0 0
537 1 -1.929917 10.723055 28.806564 0 0 0
538 1 -0.643306 8.549779 29.299494 0 0 0
539 1 -1.929917 6.376503 29.792424 0 0 0
540 1 -0.643306 4.203227 30.285354 0 0 0
541 1 -1.929917 2.029952 30.778284 0 0 0
557 1 0.643306 49.842019 19.933821 0 0 0
558 1 1.929917 47.668743 20.426751 0 0 0
559 1 0.643306 45.495467 20.919681 0 0 0
560 1 1.929917 43.322192 21.412611 0 0 0
561 1 0.643306 41.148916 21.905541 0 0 0
562 1 1.929917 38.97564 22.398472 0 0 0
563 1 0.643306 36.802364 22.891402 0 0 0
564 1 1.929917 34.629088 23.384332 0 0 0
565 1 0.643306 32.455813 23.877262 0 0 0
566 1 1.929917 30.282537 24.370192 0 0 0
567 1 0.643306 28.109261 24.863122 0 0 0
568 1 1.929917 25.935985 25.356053 0 0 0
569 1 0.643306 23.762709 25.848983 0 0 0
570 1 1.929917 21.589434 26.341913 0 0 0
571 1 0.643306 19.416158 26.834843 0 0 0
572 1 1.929917 17.242882 27.327773 0 0 0
573 1 0.643306 15.069606 27.820703 0 0 0
574 2 1.929917 12.89633 28.313634 0 0 0
575 1 0.643306 10.723055 28.806564 0 0 0
576 1 1.929917 8.549779 29.299494 0 0 0
577 1 0.643306 6.376503 29.792424 0 0 0
578 1 1.929917 4.203227 30.285354 0 0 0
579 1 0.643306 2.029952 30.778284 0 0 0
595 1 -0.643306 48.652855 18.049147 0 0 0
596 1 0.643306 46.479579 18.542077 0 0 0
597 1 -0.643306 44.306303 19.035007 0 0 0
598 1 0.643306 42.133027 19.527937 0 0 0
599 1 -0.643306 39.959752 20.020867 0 0 0
600 1 0.643306 37.786476 20.513798 0 0 0
601 1 -0.643306 35.6132 21.006728 0 0 0
602 1 0.643306 33.439924 21.499658 0 0 0
603 1 -0.643306 31.266648 21.992588 0 0 0
604 1 0.643306 29.093373 22.485518 0 0 0
605 1 -0.643306 26.920097 22.978448 0 0 0
606 1 0.643306 24.746821 23.471379 0 0 0
607 1 -0.643306 22.573545 23.964309 0 0 0
608 1 0.643306 20.400269 24.457239 0 0 0
609 1 -0.643306 18.226994 24.950169 0 0 0
610 1 0.643306 16.053718 25.443099 0 0 0
611 1 -0.643306 13.880442 25.936029 0 0 0
612 1 0.643306 11.707166 26.42896 0 0 0
613 1 -0.643306 9.53389 26.92189 0 0 0
614 1 0.643306 7.360615 27.41482 0 0 0
615 1 -0.643306 5.187339 27.90775 0 0 0
616 1 0.643306 3.014063 28.40068 0 0 0
617 1 -0.643306 0.840787 28.89361 0 0 0
634 1 1.929917 48.652855 18.049147 0 0 0
635 1 -1.929917 46.479579 18.542077 0 0 0
636 1 1.929917 44.306303 19.035007 0 0 0
637 1 -1.929917 42.133027 19.527937 0 0 0
638 1 1.929917 39.959752 20.020867 0 0 0
639 1 -1.929917 37.786476 20.513798 0 0 0
640 1 1.929917 35.6132 21.006728 0 0 0
641 1 -1.929917 33.439924 21.499658 0 0 0
642 1 1.929917 31.266648 21.992588 0 0 0
643 1 -1.929917 29.093373 22.485518 0 0 0
644 1 1.929917 26.920097 22.978448 0 0 0
645 1 -1.929917 24.746821 23.471379 0 0 0
646 1 1.929917 22.573545 23.964309 0 0 0
647 1 -1.929917 20.400269 24.457239 0 0 0
648 1 1.929917 18.226994 24.950169 0 0 0
649 1 -1.929917 16.053718 25.443099 0 0 0
650 1 1.929917 13.880442 25.936029 0 0 0
651 1 -1.929917 11.707166 26.42896 0 0 0
652 1 1.929917 9.53389 26.92189 0 0 0
653 1 -1.929917 7.360615 27.41482 0 0 0
654 1 1.929917 5.187339 27.90775 0 0 0
655 1 -1.929917 3.014063 28.40068 0 0 0
656 1 1.929917 0.840787 28.89361 0 0 0
673 1 1.929917 49.636966 15.671543 0 0 0
674 1 0.643306 47.46369 16.164473 0 0 0
675 1 1.929917 45.290415 16.657403 0 0 0
676 1 0.643306 43.117139 17.150333 0 0 0
677 1 1.929917 40.943863 17.643263 0 0 0
678 1 0.643306 38.770587 18.136193 0 0 0
679 1 1.929917 36.597311 18.629124 0 0 0
680 2 0.643306 34.424036 19.122054 0 0 0
681 1 1.929917 32.25076 19.614984 0 0 0
682 1 0.643306 30.077484 20.107914 0 0 0
683 1 1.929917 27.904208 20.600844 0 0 0
684 1 0.643306 25.730932 21.093774 0 0 0
685 1 1.929917 23.557657 21.586705 0 0 0
686 1 0.643306 21.384381 22.079635 0 0 0
687 1 1.929917 19.211105 22.572565 0 0 0
688 1 0.643306 17.037829 23.065495 0 0 0
689 1 1.929917 14.864554 23.558425 0 0 0
690 1 0.643306 12.691278 24.051355 0 0 0
691 2 1.929917 10.518002 24.544285 0 0 0
692 1 0.643306 8.344726 25.037216 0 0 0
693 1 1.929917 6.17145 25.530146 0 0 0
694 1 0.643306 3.998175 26.023076 0 0 0
695 1 1.929917 1.824899 26.516006 0 0 0
714 1 -0.643306 49.636966 15.671543 0 0 0
715 1 -1.929917 47.46369 16.164473 0 0 0
716 1 -0.643306 45.290415 16.657403 0 0 0
717 1 -1.929917 43.117139 17.150333 0 0 0
718 1 -0.643306 40.943863 17.643263 0 0 0
719 1 -1.929917 38.770587 18.136193 0 0 0
720 1 -0.643306 36.597311 18.629124 0 0 0
721 1 -1.929917 34.424036 19.122054 0 0 0
722 1 -0.643306 32.25076 19.614984 0 0 0
723 1 -1.929917 30.077484 20.107914 0 0 0
724 1 -0.643306 27.904208 20.600844 0 0 0
725 1 -1.929917 25.730932 21.093774 0 0 0
726 1 -0.643306 23.557657 21.586705 0 0 0
727 2 -1.929917 21.384381 22.079635 0 0 0
728 1 -0.643306 19.211105 22.572565 0 0 0
729 1 -1.929917 17.037829 23.065495 0 0 0
730 1 -0.643306 14.864554 23.558425 0 0 0
731 2 -1.929917 12.691278 24.051355 0 0 0
732 1 -0.643306 10.518002 24.544285 0 0 0
733 1 -1.929917 8.344726 25.037216 0 0 0
734 1 -0.643306 6.17145 25.530146 0 0 0
735 1 -1.929917 3.998175 26.023076 0 0 0
736 1 -0.643306 1.824899 26.516006 0 0 0
755 1 -1.929917 48.447802 13.786869 0 0 0
756 1 -0.643306 46.274526 14.279799 0 0 0
757 1 -1.929917 44.10125 14.772729 0 0 0
758 1 -0.643306 41.927975 15.265659 0 0 0
759 1 -1.929917 39.754699 15.758589 0 0 0
760 1 -0.643306 37.581423 16.251519 0 0 0
761 2 -1.929917 35.408147 16.74445 0 0 0
762 1 -0.643306 33.234871 17.23738 0 0 0
763 1 -1.929917 31.061596 17.73031 0 0 0
764 1 -0.643306 28.88832 18.22324 0 0 0
765 1 -1.929917 26.715044 18.71617 0 0 0
766 1 -0.643306 24.541768 19.2091 0 0 0
767 1 -1.929917 22.368492 19.70203 0 0 0
768 1 -0.643306 20.195217 20.194961 0 0 0
769 1 -1.929917 18.021941 20.687891 0 0 0
770 1 -0.643306 15.848665 21.180821 0 0 0
771 1 -1.929917 13.675389 21.673751 0 0 0
772 1 -0.643306 11.502113 22.166681 0 0 0
773 1 -1.929917 9.328838 22.659611 0 0 0
774 1 -0.643306 7.155562 23.152542 0 0 0
775 1 -1.929917 4.982286 23.645472 0 0 0
776 1 -0.643306 2.80901 24.138402 0 0 0
777 1 -1.929917 0.635734 24.631332 0 0 0
797 1 0.643306 48.447802 13.786869 0 0 0
798 1 1.929917 46.274526 14.279799 0 0 0
799 1 0.643306 44.10125 14.772729 0 0 0
800 1 1.929917 41.927975 15.265659 0 0 0
801 1 0.643306 39.754699 15.758589 0 0 0
802 1 1.929917 37.581423 16.251519 0 0 0
803 1 0.643306 35.408147 16.74445 0 0 0
804 1 1.929917 33.234871 17.23738 0 0 0
805 2 0.643306 31.061596 17.73031 0 0 0
806 1 1.929917 28.88832 18.22324 0 0 0
807 1 0.643306 26.715044 18.71617 0 0 0
808 1 1.929917 24.541768 19.2091 0 0 0
809 1 0.643306 22.368492 19.70203 0 0 0
810 1 1.929917 20.195217 20.194961 0 0 0
811 1 0.643306 18.021941 20.687891 0 0 0
812 1 1.929917 15.848665 21.180821 0 0 0
813 1 0.643306 13.675389 21.673751 0 0 0
814 1 1.929917 11.502113 22.166681 0 0 0
815 1 0.643306 9.328838 22.659611 0 0 0
816 1 1.929917 7.155562 23.152542 0 0 0
817 2 0.643306 4.982286 23.645472 0 0 0
818 1 1.929917 2.80901 24.138402 0 0 0
819 1 0.643306 0.635734 24.631332 0 0 0
839 1 -0.643306 47.258638 11.902195 0 0 0
840 1 0.643306 45.085362 12.395125 0 0 0
841 1 -0.643306 42.912086 12.888055 0 0 0
842 1 0.643306 40.73881 13.380985 0 0 0
843 1 -0.643306 38.565534 13.873915 0 0 0
844 1 0.643306 36.392259 14.366845 0 0 0
845 1 -0.643306 34.218983 14.859775 0 0 0
846 1 0.643306 32.045707 15.352706 0 0 0
847 1 -0.643306 29.872431 15.845636 0 0 0
848 1 0.643306 27.699156 16.338566 0 0 0
849 1 -0.643306 25.52588 16.831496 0 0 0
850 1 0.643306 23.352604 17.324426 0 0 0
851 1 -0.643306 21.179328 17.817356 0 0 0
852 1 0.643306 19.006052 18.310287 0 0 0
853 1 -0.643306 16.832777 18.803217 0 0 0
854 1 0.643306 14.659501 19.296147 0 0 0
855 1 -0.643306 12.486225 19.789077 0 0 0
856 1 0.643306 10.312949 20.282007 0 0 0
857 1 -0.643306 8.139673 20.774937 0 0 0
858 1 0.643306 5.966398 21.267868 0 0 0
859 1 -0.643306 3.793122 21.760798 0 0 0
860 1 0.643306 1.619846 22.253728 0 0 0
881 1 1.929917 47.258638 11.902195 0 0 0
882 1 -1.929917 45.085362 12.395125 0 0 0
883 1 1.929917 42.912086 12.888055 0 0 0
884 2 -1.929917 40.73881 13.380985 0 0 0
885 1 1.929917 38.565534 13.873915 0 0 0
886 1 -1.929917 36.392259 14.366845 0 0 0
887 1 1.929917 34.218983 14.859775 0 0 0
888 1 -1.929917 32.045707 15.352706 0 0 0
889 1 1.929917 29.872431 15.845636 0 0 0
890 1 -1.929917 27.699156 16.338566 0 0 0
891 1 1.929917 25.52588 16.831496 0 0 0
892 1 -1.929917 23.352604 17.324426 0 0 0
893 1 1.929917 21.179328 17.817356 0 0 0
894 1 -1.929917 19.006052 18.310287 0 0 0
895 1 1.929917 16.832777 18.803217 0 0 0
896 1 -1.929917 14.659501 19.296147 0 0 0
897 1 1.929917 12.486225 19.789077 0 0 0
898 1 -1.929917 10.312949 20.282007 0 0 0
899 1 1.929917 8.139673 20.774937 0 0 0
900 1 -1.929917 5.966398 21.267868 0 0 0
901 1 1.929917 3.793122 21.760798 0 0 0
902 1 -1.929917 1.619846 22.253728 0 0 0
923 1 1.929917 48.242749 9.52459 0 0 0
924 1 0.643306 46.069473 10.01752 0 0 0
925 1 1.929917 43.896198 10.510451 0 0 0
926 1 0.643306 41.722922 11.003381 0 0 0
927 1 1.929917 39.549646 11.496311 0 0 0
928 1 0.643306 37.37637 11.989241 0 0 0
929 1 1.929917 35.203094 12.482171 0 0 0
930 1 0.643306 33.029819 12.975101 0 0 0
931 1 1.929917 30.856543 13.468032 0 0 0
932 1 0.643306 28.683267 13.960962 0 0 0
933 1 1.929917 26.509991 14.453892 0 0 0
934 1 0.643306 24.336715 14.946822 0 0 0
935 1 1.929917 22.16344 15.439752 0 0 0
936 1 0.643306 19.990164 15.932682 0 0 0
937 1 1.929917 17.816888 16.425613 0 0 0
938 1 0.643306 15.643612 16.918543 0 0 0
939 1 1.929917 13.470336 17.411473 0 0 0
940 1 0.643306 11.297061 17.904403 0 0 0
941 1 1.929917 9.123785 18.397333 0 0 0
942 1 0.643306 6.950509 18.890263 0 0 0
943 1 1.929917 4.777233 19.383194 0 0 0
944 1 0.643306 2.603957 19.876124 0 0 0
945 1 1.929917 0.430682 20.369054 0 0 0
967 1 -0.643306 48.242749 9.52459 0 0 0
968 1 -1.929917 46.069473 10.01752 0 0 0
969 1 -0.643306 43.896198 10.510451 0 0 0
970 1 -1.929917 41.722922 11.003381 0 0 0
971 1 -0.643306 39.549646 11.496311 0 0 0
972 1 -1.929917 37.37637 11.989241 0 0 0
973 1 -0.643306 35.203094 12.482171 0 0 0
974 1 -1.929917 33.029819 12.975101 0 0 0
975 1 -0.643306 30.856543 13.468032 0 0 0
976 1 -1.929917 28.683267 13.960962 0 0 0
977 1 -0.643306 26.509991 14.453892 0 0 0
978 1 -1.929917 24.336715 14.946822 0 0 0
979 1 -0.643306 22.16344 15.439752 0 0 0
980 1 -1.929917 19.990164 15.932682 0 0 0
981 1 -0.643306 17.816888 16.425613 0 0 0
982 1 -1.929917 15.643612 16.918543 0 0 0
983 1 -0.643306 13.470336 17.411473 0 0 0
984 1 -1.929917 11.297061 17.904403 0 0 0
985 1 -0.643306 9.123785 18.397333 0 0 0
986 1 -1.929917 6.950509 18.890263 0 0 0
987 1 -0.643306 4.777233 19.383194 0 0 0
988 1 -1.929917 2.603957 19.876124 0 0 0
989 1 -0.643306 0.430682 20.369054 0 0 0
1011 1 -0.643306 49.226861 7.146986 0 0 0
1012 1 -1.929917 47.053585 7.639916 0 0 0
1013 1 -0.643306 44.880309 8.132846 0 0 0
1014 1 -1.929917 42.707033 8.625777 0 0 0
1015 1 -0.643306 40.533757 9.118707 0 0 0
1016 1 -1.929917 38.360482 9.611637 0 0 0
1017 1 -0.643306 36.187206 10.104567 0 0 0
1018 1 -1.929917 34.01393 10.597497 0 0 0
1019 1 -0.643306 31.840654 11.090427 0 0 0
1020 1 -1.929917 29.667379 11.583358 0 0 0
1021 1 -0.643306 27.494103 12.076288 0 0 0
1022 1 -1.929917 25.320827 12.569218 0 0 0
1023 1 -0.643306 23.147551 13.062148 0 0 0
1024 1 -1.929917 20.974275 13.555078 0 0 0
1025 1 -0.643306 18.801 14.048008 0 0 0
1026 1 -1.929917 16.627724 14.540939 0 0 0
1027 1 -0.643306 14.454448 15.033869 0 0 0
1028 1 -1.929917 12.281172 15.526799 0 0 0
1029 1 -0.643306 10.107896 16.019729 0 0 0
1030 1 -1.929917 7.934621 16.512659 0 0 0
1031 1 -0.643306 5.761345 17.005589 0 0 0
1032 1 -1.929917 3.588069 17.49852 0 0 0
1033 1 -0.643306 1.414793 17.99145 0 0 0
1057 1 1.929917 49.226861 7.146986 0 0 0
1058 1 0.643306 47.053585 7.639916 0 0 0
1059 1 1.929917 44.880309 8.132846 0 0 0
1060 1 0.643306 42.707033 8.625777 0 0 0
1061 1 1.929917 40.533757 9.118707 0 0 0
1062 1 0.643306 38.360482 9.611637 0 0 0
1063 1 1.929917 36.187206 10.104567 0 0 0
1064 1 0.643306 34.01393 10.597497 0 0 0
1065 1 1.929917 31.840654 11.090427 0 0 0
1066 1 0.643306 29.667379 11.583358 0 0 0
1067 1 1.929917 27.494103 12.076288 0 0 0
1068 1 0.643306 25.320827 12.569218 0 0 0
1069 1 1.929917 23.147551 13.062148 0 0 0
1070 2 0.643306 20.974275 13.555078 0 0 0
1071 1 1.929917 18.801 14.048008 0 0 0
1072 1 0.643306 16.627724 14.540939 0 0 0
1073 1 1.929917 14.454448 15.033869 0 0 0
1074 1 0.643306 12.281172 15.526799 0 0 0
1075 1 1.929917 10.107896 16.019729 0 0 0
1076 1 0.643306 7.934621 16.512659 0 0 0
1077 1 1.929917 5.761345 17.005589 0 0 0
1078 1 0.643306 3.588069 17.49852 0 0 0
1079 1 1.929917 1.414793 17.99145 0 0 0
1103 1 0.643306 48.037696 5.262312 0 0 0
1104 1 -0.643306 45.864421 5.755242 0 0 0
1105 1 0.643306 43.691145 6.248172 0 0 0
1106 1 -0.643306 41.517869 6.741103 0 0 0
1107 1 0.643306 39.344593 7.234033 0 0 0
1108 1 -0.643306 37.171317 7.726963 0 0 0
1109 1 0.643306 34.998042 8.219893 0 0 0
1110 1 -0.643306 32.824766 8.712823 0 0 0
1111 1 0.643306 30.65149 9.205753 0 0 0
1112 1 -0.643306 28.478214 9.698684 0 0 0
1113 1 0.643306 26.304938 10.191614 0 0 0
1114 1 -0.643306 24.131663 10.684544 0 0 0
1115 1 0.643306 21.958387 11.177474 0 0 0
1116 1 -0.643306 19.785111 11.670404 0 0 0
1117 1 0.643306 17.611835 12.163334 0 0 0
1118 1 -0.643306 15.438559 12.656265 0 0 0
1119 1 0.643306 13.265284 13.149195 0 0 0
1120 1 -0.643306 11.092008 13.642125 0 0 0
1121 1 0.643306 8.918732 14.135055 0 0 0
1122 1 -0.643306 6.745456 14.627985 0 0 0
1123 1 0.643306 4.572181 15.120915 0 0 0
1124 1 -0.643306 2.398905 15.613846 0 0 0
1125 1 0.643306 0.225629 16.106776 0 0 0
1148 1 -1.929917 48.037696 5.262312 0 0 0
1149 1 1.929917 45.864421 5.755242 0 0 0
1150 1 -1.929917 43.691145 6.248172 0 0 0
1151 1 1.929917 41.517869 6.741103 0 0 0
1152 1 -1.929917 39.344593 7.234033 0 0 0
1153 1 1.929917 37.171317 7.726963 0 0 0
1154 1 -1.929917 34.998042 8.219893 0 0 0
1155 1 1.929917 32.824766 8.712823 0 0 0
1156 1 -1.929917 30.65149 9.205753 0 0 0
1157 1 1.929917 28.478214 9.698684 0 0 0
1158 1 -1.929917 26.304938 10.191614 0 0 0
1159 1 1.929917 24.131663 10.684544 0 0 0
1160 1 -1.929917 21.958387 11.177474 0 0 0
1161 1 1.929917 19.785111 11.670404 0 0 0
1162 1 -1.929917 17.611835 12.163334 0 0 0
1163 1 1.929917 15.438559 12.656265 0 0 0
1164 1 -1.929917 13.265284 13.149195 0 0 0
1165 1 1.929917 11.092008 13.642125 0 0 0
1166 1 -1.929917 8.918732 14.135055 0 0 0
1167 1 1.929917 6.745456 14.627985 0 0 0
1168 1 -1.929917 4.572181 15.120915 0 0 0
1169 1 1.929917 2.398905 15.613846 0 0 0
1170 1 -1.929917 0.225629 16.106776 0 0 0
1193 1 0.643306 49.021808 2.884708 0 0 0
1194 1 1.929917 46.848532 3.377638 0 0 0
1195 1 0.643306 44.675256 3.870568 0 0 0
1196 1 1.929917 42.501981 4.363498 0 0 0
1197 1 0.643306 40.328705 4.856429 0 0 0
1198 1 1.929917 38.155429 5.349359 0 0 0
1199 1 0.643306 35.982153 5.842289 0 0 0
1200 1 1.929917 33.808877 6.335219 0 0 0
1201 1 0.643306 31.635602 6.828149 0 0 0
1202 1 1.929917 29.462326 7.321079 0 0 0
1203 1 0.643306 27.28905 7.81401 0 0 0
1204 1 1.929917 25.115774 8.30694 0 0 0