LAMMPS data file via write_data, version 2 Apr 2025, timestep = 10892, units = metal

14782 atoms
2 atom types

-2.573223 2.573223 xlo xhi
0 200 ylo yhi
0 173.205081 zlo zhi

Masses

1 63.546
2 58.693

Atoms # atomic

1675 1 0.7051516387537168 2.0033154919468763 2.8211998692457043 0 0 0
1721 1 -1.9975156747328022 1.9851863367120492 2.8355832396790133 0 0 0
1766 1 0.7037196027389235 2.8744486000655662 0.44351786434329515 0 0 0
1767 1 1.8483063934540302 0.670114106174708 0.9189710909980029 0 0 0
1812 1 -1.9386946155846054 2.7899064496996506 0.5652679585578454 0 0 0
1813 1 -0.7062593181881701 0.7046845166247718 0.7598088502759636 0 0 0
1673 1 0.5361507691562852 6.200112919053312 1.9493261790093444 0 0 0
1674 1 -0.6783678323962222 4.0133275168950036 2.311511673954141 0 0 0
1719 1 -2.050845198933678 6.299534208112636 1.7931615833453707 0 0 0
1720 1 1.9251246533141106 4.087182931566661 2.311389221007286 0 0 0
1579 1 -1.9849837587779282 9.571327404560847 3.2199887140299848 0 0 0
1625 1 0.6942715291465789 9.599035970717013 3.3242908505682665 0 0 0
1671 1 0.6324007147316293 10.433713945870206 0.8122815635885443 0 0 0
1672 1 -0.8159560850829556 8.408040893665293 1.4943910760522758 0 0 0
1717 1 -1.9330731332587439 10.45440332726282 0.9651109164957992 0 0 0
1718 1 1.7583831567406145 8.357475851888855 1.3517775130976315 0 0 0
1577 1 -1.8607745439549013 13.76278871181754 2.3517778953914066 0 0 0
1578 1 -0.729239140662558 11.571389557416083 2.801507807203808 0 0 0
1623 1 0.6436309290688655 13.906558911717191 2.404343163699928 0 0 0
1624 1 1.790606850927953 11.793351580397351 2.893909463481192 0 0 0
1670 1 -0.7186293301016616 12.619106012303975 0.5804896501372202 0 0 0
1716 1 1.829487524425996 12.7364726801433 0.44396427236307806 0 0 0
1576 1 -0.7271096671804435 16.094492226308653 2.0103069384179197 0 0 0
1622 1 1.8779024941354943 16.113025635174605 1.8320757813957451 0 0 0
1530 1 -1.9948394122486781 17.26761001347149 3.6943934032071843 0 0 0
5208 1 -0.5470032921400361 99.78002642283087 8.518064617044217 0 0 0
1621 1 0.7184407513289949 18.261892491846993 1.4221753531441015 0 0 0
1483 1 1.8974390102772605 19.47385243864266 3.3000760703185015 0 0 0
1529 1 -0.6772440719541976 19.387710949389906 3.150348413015933 0 0 0
1574 1 -0.844309617861208 20.243966011618973 0.8772428171393083 0 0 0
1575 1 -2.078086570292505 18.200629252113494 1.3207346158113713 0 0 0
1620 1 1.7488865134191591 20.313926280815817 0.801280491379777 0 0 0
1528 1 -1.9698916787465064 21.565906483327463 2.643212963590121 0 0 0
1482 1 0.517515573637849 21.556202083489875 2.584193176242575 0 0 0
1481 1 1.9204723832527286 23.646478592158086 2.0630927142574604 0 0 0
1527 1 -0.5937491278288188 23.6445615241287 2.044532686845738 0 0 0
1573 1 -2.1962240282506813 22.46102103877205 0.2712872696511371 0 0 0
1619 1 0.3704322315699446 22.37850393251578 0.1653744466051742 0 0 0
1479 1 1.7068930340301929 27.999371428553744 1.0677324728926547 0 0 0
1480 1 0.4274068510064322 25.806475528996558 1.7756183399995873 0 0 0
1525 1 -0.8095689627870858 27.892480956933774 1.074951173774035 0 0 0
1526 1 -2.2746502226139294 25.80402816273845 1.5690764304806222 0 0 0
1385 1 -0.8703077629318008 31.287646985361942 2.6474411174194388 0 0 0
1386 1 0.5896333971909171 29.135181088376836 2.9404693652931173 0 0 0
1431 1 1.7102418932840031 31.352916140567256 2.5855349470074533 0 0 0
1432 1 -1.9357232866582996 29.14721272365479 3.0567907074667637 0 0 0
1478 1 0.3957710193356512 30.158315534436536 0.7080462756933517 0 0 0
1524 1 -2.12591726633348 30.21667781709675 0.7537800668122827 0 0 0
1477 1 1.6935714682509173 32.33244519599039 0.17040193650772295 0 0 0
1523 1 -0.8424416239282169 32.32985731630459 0.14690800143371788 0 0 0
1384 1 0.36211878100204564 33.458370274719805 2.0353994715687733 0 0 0
1430 1 -2.159327465644471 33.32152157731094 2.047138831861645 0 0 0
1383 1 -0.8140012316798623 35.6574910056567 1.556787833135156 0 0 0
1429 1 1.7900258135791938 35.596283249691254 1.593794015517635 0 0 0
1289 1 -0.6386080907188038 39.18886212504339 3.0029230257572577 0 0 0
1335 1 1.9969286394890253 39.013932804505664 2.9793749097013396 0 0 0
1382 1 0.4357952461501504 37.854400517683125 1.1627638067654844 0 0 0
1428 1 -2.1288195566534633 37.77573747047433 1.0232159661514346 0 0 0
1290 1 -1.9392171680569348 36.84548522900392 3.40294272012248 0 0 0
1288 1 -1.900069406384074 41.25780607881321 2.4062569244440906 0 0 0
1334 1 0.6184249120188667 41.29394847651569 2.3646434708210635 0 0 0
1381 1 -0.819273833038969 40.00357358900165 0.5164444449340976 0 0 0
1427 1 1.6839613605180899 39.911810379438364 0.5533864497030129 0 0 0
3775 1 -1.9448235784334795 99.91792685147972 54.02309516775599 0 0 0
1380 1 0.5472721875480031 42.112892229151576 0.07388790244713743 0 0 0
1286 1 -2.003541368928093 45.61419912255417 1.3033898455582764 0 0 0
1287 2 -0.5970894498973339 43.52410311151558 2.042870298515341 0 0 0
1332 1 0.6187543547778152 45.677449915808175 1.3319276487445033 0 0 0
1333 1 1.8302288494897587 43.519461815464744 1.9567239346071905 0 0 0
1193 1 1.6642626480186775 49.518091543385474 2.600676574207776 0 0 0
1194 1 1.9334127549440594 47.094047329387806 3.0597623301068606 0 0 0
1239 1 -0.9637678560260076 49.26528999861893 2.734172859072941 0 0 0
1240 1 -0.6228579467289092 46.92292903671377 3.1570225688558495 0 0 0
1285 1 0.3309199225880052 48.07638928606971 1.0863007987656803 0 0 0
1331 2 -2.2236992936734405 48.13086950085903 0.989614010545011 1 0 0
6416 1 -0.7780571869488677 52.807747961061764 2.484986863695193 0 0 0
6457 1 1.8756189363211688 52.668466469444915 2.447226371654685 0 0 0
6498 1 0.4474009235203003 50.898606897950394 1.0482315523547974 0 0 0
6538 1 -2.157941062725137 50.94221818702399 0.9686193775870995 0 0 0
6330 1 1.9305097853367614 56.31751952526546 3.007203915617174 0 0 0
6373 1 -0.6154218188801082 56.26352048896968 2.9743484293393543 0 0 0
6414 1 -0.8600150924929271 56.80389852585744 0.5161599754744505 0 0 0
6415 1 -1.9733544322489405 54.66333414082618 1.4436986972766968 0 0 0
6455 1 1.821540615950581 56.74679675220684 0.41718823481570266 0 0 0
6456 2 0.5444280209408291 54.812845966707776 1.4160333725975958 0 0 0
6328 1 1.8185444152286738 60.41975606205271 1.0751534822677207 0 0 0
6329 1 0.5362678564283152 58.370371495328634 1.9434725994692106 0 0 0
6371 1 -0.686008064277261 60.458183943286315 1.1052637854772809 0 0 0
6372 1 -2.183286999990834 58.2626750736084 2.0073321899664758 0 0 0
6285 1 1.8664671690688794 60.14628450000302 3.5625904246295264 0 0 0
6239 2 -0.6662958921358744 64.07260546961935 1.4560506819944723 0 0 0
6240 1 0.5643397984995115 62.06032611800838 2.561198170640439 0 0 0
6283 2 1.9101789426460762 63.78406313145849 1.546155753973135 0 0 0
6284 1 -1.919193678247067 62.078402502577376 2.6588139398653987 0 0 0
7956 1 2.219521111246464 99.97780659934884 70.48584653916696 -1 0 0
7882 1 0.7459565565383108 99.75178853096915 68.54222095235616 0 0 0
6148 1 -0.8746036268940792 67.46030190099502 1.9372892581309866 0 0 0
6149 1 -1.9675932054500707 65.48459342714689 3.051885718722643 0 0 0
6193 1 1.851045933714152 67.64679298708474 2.0524531887876916 0 0 0
6194 1 0.6729189409975387 65.45960633083727 2.912143546373018 0 0 0
6238 1 0.6067778384043034 65.95033223882224 0.4853335372613862 0 0 0
6282 1 -2.14627467165102 65.87380825079929 0.5175764382500746 0 0 0
6147 1 -2.02173579195473 69.60508564759041 0.9627652339143667 0 0 0
6192 1 0.4248479803365258 69.46976585172776 1.0342227762804554 0 0 0
6058 1 0.4149833288697496 69.2948207558717 3.4400157773943447 0 0 0
6057 1 1.708969506177125 71.22033998969457 2.4680483207515285 0 0 0
6103 1 -2.133650221226697 69.26166628044867 3.413501198799318 0 0 0
6102 1 -0.8608123363017288 71.20521843574943 2.4261540877460233 0 0 0
6010 1 1.800019810674751 74.72956412769135 2.8487805041248286 0 0 0
6056 1 0.6435953243829611 73.10795876522533 1.2970486245749027 0 0 0
6101 1 -2.023594958141334 73.15786887889264 1.5245138596327643 0 0 0
5963 1 -0.8317888500662528 74.75582257326839 2.8863808698029993 0 0 0
9343 1 0.6248425896834755 39.60721395534355 86.52131061481361 0 0 0
5962 1 0.43417877985778897 76.68988831438107 1.798300685939365 0 0 0
6009 1 -2.191253177025255 76.6222362460126 1.6680758907687812 0 0 0
6100 1 -0.7110204511003616 75.07051464791505 0.37422306394046595 0 0 0
6055 1 1.8010853710330494 74.97048486982865 0.16336204787774042 0 0 0
5866 1 -0.7802359036256498 78.43446501504492 3.209856668770324 0 0 0
5914 1 1.7784719331954308 78.42909691483973 3.1949042727521393 0 0 0
5865 1 -1.9238581330939566 80.46032340628362 2.2200802754052518 0 0 0
5913 1 0.7041290156336484 80.34641758232647 2.2208070045904194 0 0 0
5961 1 -0.6893749350279054 78.7102788733346 0.7980212494653417 0 0 0
6008 1 1.9294698516122537 78.64043478106443 0.641915907848503 0 0 0
5766 1 0.6500183140210744 83.83745506478749 2.564615575961654 0 0 0
5815 1 -1.8133654653095193 83.87045862496424 2.6279664721381364 0 0 0
5864 1 -0.6280757585033705 82.33155842871696 1.1518447881575375 0 0 0
5912 1 1.9855240240105823 82.26295512933196 1.016537146330939 0 0 0
9434 1 0.8661595013612382 33.31313777732004 86.56828923260201 0 0 0
7675 1 2.1573523026812906 99.9481160037087 61.92218419549697 0 0 0
5665 1 0.577404954034114 87.54723984425478 3.0908129054980273 0 0 0
5715 1 -2.0035424569680003 87.64510610273146 3.018871571307929 0 0 0
5764 1 0.6983427509399168 87.84720895930471 0.5201914308995267 0 0 0
5765 1 1.8695467081856427 85.79374133843012 1.552676476486661 0 0 0
5813 1 -1.8777150980789608 87.94967493313754 0.5302384595600909 0 0 0
5814 1 -0.7230005153111886 85.91834418919858 1.5363674266480227 0 0 0
5663 1 0.7675041128283699 91.69143365706645 0.9215069065272284 0 0 0
5664 1 -0.5933168841567648 89.60294692943815 1.9846167149228138 0 0 0
5713 1 -1.7599706262373018 91.75854597872595 0.9465131379867473 0 0 0
5714 1 1.9444800910102986 89.63286410391028 2.1315785258047204 0 0 0
5560 1 -1.8414134422438746 95.40642473590283 1.392597381932531 0 0 0
5561 1 -0.5389466931819533 93.27256974914998 2.437578666472686 0 0 0
5611 1 0.6679435545357089 95.25380526631618 1.3289568298170245 0 0 0
5612 1 1.9489521912604202 93.34599040299435 2.434338656749816 0 0 0
8528 1 0.9177212457645475 96.71821370227747 84.66109234667752 0 0 0
397 1 0.7987369112673012 0.014916457944177588 35.517471324253314 0 0 0
5455 1 0.6472171945695655 98.86215965915812 1.6919871612784099 0 0 0
5456 1 1.9913660720411488 96.86443805282397 2.9591184299519995 0 0 0
5507 1 -1.9659199281607176 98.9273345879329 1.8471957727183128 0 0 0
5508 1 -0.531991829924268 96.84973267861658 2.8365589980698847 0 0 0
5610 1 2.183528911269673 97.36483843535393 0.37167859241968965 0 0 0
5559 1 -0.4340641433298078 97.27359194550735 0.15645455511644918 0 0 0
1582 1 -0.8435282565090454 3.0318565554029577 4.6690392050554195 0 0 0
1583 1 -1.9604277796799237 0.8971406523273923 5.138285635120927 0 0 0
1628 1 1.8418536508752146 2.9307882503563976 4.726793904032338 0 0 0
1629 1 0.6585222595847893 0.8956993908556895 5.256458099928284 0 0 0
1491 1 1.8765286659918867 2.043297535855984 7.115633894516747 0 0 0
1489 1 1.858639013846217 6.350650542370139 6.162998268614029 0 0 0
1490 1 0.5673554330360029 4.34010933143055 6.59570985478454 0 0 0
1535 1 -0.7876754152674743 6.3763687096272905 5.994619681841634 0 0 0
1536 1 -1.9621416905023734 4.160000548978898 6.48749818232757 0 0 0
1581 1 -2.0101223923571307 5.1955656398479055 4.082421150873907 0 0 0
1627 1 0.5517451717482655 5.142473125171586 4.221923559357392 0 0 0
1626 1 1.845752695884755 7.2904987207147895 3.72443959149983 0 0 0
1580 1 -0.6966739417039306 7.484159132346638 3.7926999976087625 0 0 0
1487 1 1.7530597691840817 10.754579630742304 5.27043580460123 0 0 0
1488 1 0.48347168142334895 8.59917110991318 5.601773612917463 0 0 0
1533 1 -0.8645220667291921 10.770873093208095 5.1233072748375275 0 0 0
1534 1 -2.1365602154641885 8.513495575004637 5.5881833739860145 0 0 0
1393 1 -0.6673026066483619 14.302065955037136 6.506892776404369 0 0 0
1439 2 1.9621487623272615 14.127728681702294 6.474603323286631 0 0 0
1486 1 0.6311795506856642 12.837293545942236 4.701661873052372 0 0 0
1532 1 -1.8389050183163809 12.901172292041581 4.721299405933538 0 0 0
1394 1 0.4014234737855149 12.112775840907439 7.112886183508335 0 0 0
1392 1 0.7224153277322591 16.24555455020901 6.023017617460064 0 0 0
1438 1 -1.9426765909886614 16.370212922080377 6.026133046316732 0 0 0
1484 2 0.6672360062551516 17.263777632305995 3.777197432257759 0 0 0
1485 1 2.003739336545661 15.05527567988321 4.239455732725463 0 0 0
1531 1 -0.6305172197092355 15.118746304212472 4.220121626439208 0 0 0
1390 1 0.540547018410985 20.66122806652944 5.07876125174143 0 0 0
1391 1 -0.6221632582080265 18.414212196815004 5.569318234094903 0 0 0
1436 1 -2.1372792373202127 20.714110550440108 5.03861468156308 0 0 0
1437 1 1.9112125044991761 18.52815478187065 5.558096034686376 0 0 0
1343 1 1.8592914509683462 21.81998752103166 6.976214231197927 0 0 0
1296 1 -1.95068993874936 23.70320682053812 6.5211662310027565 0 0 0
1297 1 -0.5445738818460384 21.770467778990675 7.083577604772189 0 0 0
1342 1 0.6079869840192309 23.84537965169356 6.4949327294330965 0 0 0
1388 1 0.685107220488176 24.953131513520304 4.152070418245985 0 0 0
1389 1 -0.7559612656226201 22.77468924610764 4.4267072667164955 0 0 0
1434 1 -1.9637510789032093 24.84376826730865 3.9969736955343746 0 0 0
1435 2 1.8671385179590998 22.804393321943426 4.37178417666282 0 0 0
1387 1 -0.7103381575896536 27.08596997538768 3.627398034313716 0 0 0
1433 1 1.8777194905710106 27.02954059139586 3.4266174023689078 0 0 0
1294 1 -2.1975973040239807 28.14496421186475 5.364757777131491 0 0 0
1295 1 -0.9085658231983944 25.96985710899391 5.929946516116432 0 0 0
1340 1 0.5114029416537397 28.162856386551727 5.2995471864644665 0 0 0
1341 1 1.6746244863498774 25.948725924413516 6.056615015436962 0 0 0
1201 1 0.5130257612834022 31.579550778618813 6.804319270023998 0 0 0
1247 1 -2.003903132419753 31.593543656302327 6.798153078526984 0 0 0
1293 1 -0.7484450697453361 30.40353406570965 4.999406810452641 0 0 0
1339 1 1.8744068200942139 30.347587176675592 4.916110133581837 0 0 0
1200 1 1.6906071399676548 33.638299888263944 6.351683519100355 0 0 0
1246 1 -0.8695143790145136 33.800989012978526 6.290398957200039 0 0 0
1291 1 -0.7619286874912191 34.77961760704553 3.959066629298223 0 0 0
1292 1 -2.1064129405739016 32.59471318370904 4.536040576405458 0 0 0
1337 1 1.8133022111554478 34.73887691256582 3.8417060076536513 0 0 0
1338 1 0.4880897069241093 32.53060840343731 4.559786323730599 0 0 0
1336 1 0.4890245996769186 36.934616224992325 3.4367754349305915 0 0 0
1199 1 0.4649122986966222 35.88180732118185 5.774021308549055 0 0 0
1198 1 1.8563640276742523 38.133275667538435 5.258979309381885 0 0 0
1244 1 -0.77240095197935 38.11827852308028 5.153597821210839 0 0 0
1245 1 -2.228991954102179 35.95015003810799 5.740390364099149 0 0 0
1106 1 -0.8820470984916702 41.638088288965456 6.6346137220793215 0 0 0
1151 1 1.863170474108574 41.56427434877273 6.6538877796676275 0 0 0
1196 1 1.9169528640184266 42.49903732765805 4.330133114362132 0 0 0
1197 1 0.6894365255776275 40.31512787785864 4.8359813400288605 0 0 0
1242 1 -0.6857515674655423 42.57824832061126 4.260888551375578 0 0 0
1243 1 -1.9161138394822863 40.31965767070122 4.722447088410641 0 0 0
1195 1 0.7780783029920764 44.84012818039115 3.865085253183671 0 0 0
1104 1 -0.5967150865473118 46.036556040734624 5.586704394089509 0 0 0
1105 1 0.5319945896960531 43.76354388936242 6.08565893616807 0 0 0
1150 1 -1.9857192592987365 43.80044753560747 6.135832056027864 0 0 0
1241 1 -1.9590715335944862 44.80845906661793 3.659659455439044 0 0 0
1149 1 2.0750785136976955 46.093583809057705 5.467007431717425 0 0 0
1011 1 -0.5985794972023858 48.96634912219583 7.089838893150831 0 0 0
1103 1 0.6481678279938725 48.579396861362895 4.887221838665182 0 0 0
1148 1 -1.9602362315790343 48.39961440708523 4.859665863396808 0 0 0
1057 1 2.044068402187772 48.81100434699009 6.979319192768913 0 0 0
6458 1 0.38074211396575 51.03080420082119 3.902676777297481 0 0 0
6332 1 1.8435067294535743 52.851002213459786 5.206421231656418 0 0 0
6333 1 0.5250530501160271 50.87551309739513 6.257744546589391 0 0 0
6375 1 -0.7188660932140827 52.75575012853316 5.284120306624098 0 0 0
6376 1 -1.822535302984445 50.859268618643 6.383019396974181 0 0 0
6417 1 -2.1634502781109397 50.88187650044769 4.010043846227811 0 0 0
6243 1 -0.7206866078137792 56.06896569213186 5.699135246922047 0 0 0
6244 1 0.5453501555534865 54.23642697018358 6.920297528898798 0 0 0
6287 1 1.924074679946644 56.13103651838167 5.697309725144778 0 0 0
6288 1 -2.077685231900437 54.304261842659145 6.729107712835547 0 0 0
6331 1 0.6219518949586682 54.50515449673286 4.1282619244237235 0 0 0
6374 1 -2.023241540398304 54.54444595585014 4.085449387437418 0 0 0
6241 1 -0.6881107030682483 59.97958189990746 3.5217887037661453 0 0 0
6152 1 -0.7453188431725294 59.67724896288576 6.025979397939172 0 0 0
6197 2 1.8873716093473099 59.63014734793067 5.974994040872039 0 0 0
6242 1 0.5770254928974805 57.871827837974664 4.435220310736896 0 0 0
6286 1 -2.0008982082653355 57.91184715266748 4.548826824627607 0 0 0
6198 1 0.6050665932562388 57.77310648249115 7.145592116577479 0 0 0
6153 1 -1.9615208160498512 57.81514183015583 7.123034255953517 0 0 0
6061 1 1.8343106417096002 63.4743233635023 6.628724280136812 0 0 0
6106 1 -0.733070359985453 63.39989958257683 6.552559071725582 0 0 0
6150 1 -0.6600048710100981 63.6019383869802 4.047754300317577 0 0 0
6151 1 -1.8604845436930983 61.712149474557435 4.990056578322204 0 0 0
6195 1 1.9336007552841779 63.710323751157134 4.0803278824032665 0 0 0
6196 1 0.6025922444941488 61.661966068796744 5.080979247005822 0 0 0
6059 1 1.8806573052206537 67.32772589030887 4.539329491492103 0 0 0
6060 1 0.5245819244189269 65.36237997075384 5.498471917061482 0 0 0
6104 1 -0.7462914950760596 67.3117956401336 4.540726823559241 0 0 0
6105 1 -1.9665061274994815 65.32132767398103 5.584191815373258 0 0 0
5967 1 -0.6746478628724979 67.05237225773882 7.259259926921903 0 0 0
6014 1 1.9145756728106778 66.88311500690358 7.053995205109251 0 0 0
5965 1 -0.7035932567754678 70.84965971543441 5.1402008094066 0 0 0
5966 1 0.5144074412004043 68.83646711304971 6.050036462368461 0 0 0
6012 1 1.7789237619657583 70.77924253378386 5.014760022347664 0 0 0
6013 1 -1.9753715440392323 68.8824242145652 6.080826176293799 0 0 0
5868 1 -0.7055527001527907 74.41582615479913 5.462294745780617 0 0 0
5869 1 -2.0152840487771475 72.49339450288687 6.481186481260461 0 0 0
5916 1 1.8660840089013067 74.42280130353988 5.382572401501318 0 0 0
5917 1 0.5777837036199877 72.4520538802542 6.4739068123304255 0 0 0
5964 1 0.2457287170383135 72.94476910045117 3.9798125898994337 0 0 0
6011 1 -2.139972203823712 72.78044114397488 3.9817150917915627 0 0 0
5769 1 1.8312973688583303 78.11774048133404 5.799068003835672 0 0 0
5770 1 0.6486706284540656 76.08013532857521 6.849580017339004 0 0 0
5818 1 -0.6401412780981607 78.17878856455337 5.6931093533887305 0 0 0
5819 1 -2.042266604627565 76.13948606346011 6.774320612723719 0 0 0
5867 1 -1.9566093012840204 76.52408906902023 4.294641544238433 0 0 0
5915 1 0.6104473081293977 76.39300766996149 4.271158288568971 0 0 0
5668 1 -0.662862964500147 81.58371371827654 6.2692009598091785 0 0 0
5718 1 1.9392549257707514 81.55512513142756 6.304496720877295 0 0 0
5768 1 0.6837109202724087 80.05425330599027 4.756258453222103 0 0 0
5817 1 -2.0003518590690907 80.0035879582265 4.824766518982859 0 0 0
5767 1 2.0229401188642853 81.90798408923628 3.7140580291572625 0 0 0
5816 1 -0.5153653526005801 81.95560741427695 3.897574866333071 0 0 0
5565 1 -0.7564120636294588 85.32999303950653 6.548080423635267 0 0 0
5616 1 1.8816985776963522 85.40201510936096 6.671906637180869 0 0 0
5667 1 0.6677350573114984 83.62637357652729 5.164699182639501 0 0 0
5717 1 -2.0199305892317443 83.54803766890606 5.2636263294767955 0 0 0
5716 1 1.8370738120843184 85.58633823590246 4.0065093874336295 0 0 0
5666 1 -0.7228105527217271 85.68150702369512 4.025053765650938 0 0 0
5564 1 -1.9062578038240214 87.3792329527372 5.592082737023744 0 0 0
5615 1 0.6174036129797674 87.2949391803713 5.725489570757288 0 0 0
5613 1 0.5061063967080808 91.29313527468024 3.4810266701325583 0 0 0
5562 1 -2.026683789997162 91.35147976251918 3.364391734995576 0 0 0
5563 1 -0.5780134461064751 89.29564768344684 4.466404759110723 0 0 0
5614 1 1.9291989580261173 89.27496246088059 4.5670910140573415 0 0 0
5459 1 0.756550214428638 90.9732205542028 6.02932154177037 0 0 0
5511 1 -1.776605150911066 91.00360775199005 5.97045015987344 0 0 0
5458 1 1.8787611846575543 92.98383311083201 4.862490146031391 0 0 0
5510 1 -0.6586625539522716 92.93798084800628 5.048338728109578 0 0 0
5357 2 0.6240270676048723 94.57680579167648 6.46901828599362 0 0 0
5407 1 -2.037762941893915 94.5672540119003 6.412585055617141 0 0 0
5457 1 0.6813986615805516 94.87201509372214 3.908061481252623 0 0 0
5509 1 -1.8565247333945478 94.93059829689449 3.9470499208988596 0 0 0
5356 1 -0.5970084515056822 96.48337821805636 5.3704859109281164 0 0 0
5406 1 1.8652103857734472 96.50337978906435 5.380427189246379 0 0 0
5257 1 -1.9627025750725877 98.14371534548664 6.937982663499065 0 0 0
5306 1 0.6207354087860958 98.31789131906217 6.864199463000921 0 0 0
5355 1 0.6535270213507897 98.48256150823647 4.347026223283495 0 0 0
5405 1 -1.8354263963097524 98.45023227291279 4.356067657051765 0 0 0
1537 1 -0.7073327356380422 2.067368357296494 7.166973905767387 0 0 0
1398 1 0.4156562802287092 3.1654392947554233 8.980792663096526 0 0 0
1399 1 -0.847154977196241 1.0450252163283276 9.435773564631885 0 0 0
1444 1 -2.098983545634905 3.0997471721351224 8.931041373957559 0 0 0
1445 1 1.6968955478521908 0.9767991459409485 9.387758706516806 0 0 0
1304 1 -1.7479956126836371 6.710014410378983 10.378652495028557 0 0 0
1350 1 0.7007991981304809 6.61590392994865 10.445126258880926 0 0 0
1397 1 -0.5711228874156595 5.511932545275877 8.354867896299586 0 0 0
1443 1 2.023232154169961 5.386814306606221 8.717456152711222 0 0 0
1442 1 -2.01368405439193 7.6265882006394605 7.9100885539607955 0 0 0
1303 1 -0.6137497757869803 8.760904292673882 10.058107392753115 0 0 0
1349 1 1.9953602329399753 8.80047393683795 9.88693513591461 0 0 0
1395 2 -0.7213451551197492 9.696009499513654 7.416872300953367 0 0 0
1396 1 0.5532443611035808 7.58546202405662 7.96144450788298 0 0 0
1441 1 1.9643598982562407 9.792344125261593 7.545106119199885 0 0 0
1440 1 -2.085616490113234 11.901532419262768 7.043271435660075 0 0 0
1302 1 -1.8644307888851013 10.960037937771569 9.370961990151367 0 0 0
1348 1 0.6952347998599328 10.883153205565918 9.336440544575114 0 0 0
1301 1 -0.7938419148995017 13.25936657282166 8.86115495586043 0 0 0
1347 1 1.814855041626294 13.164626975652672 8.84411558529604 0 0 0
1208 1 1.7445777754927971 16.443843598943833 10.34793745876187 0 0 0
1254 1 -0.7463069279624114 16.405347846606343 10.259864196687571 0 0 0
1299 1 -0.6687543061078655 17.50637381742665 7.970785485825568 0 0 0
1300 1 -2.0623472428535536 15.344375027058762 8.449923736309469 0 0 0
1345 1 1.8316458201844728 17.596810946699172 7.904247407049777 0 0 0
1346 1 0.5701163448274857 15.229547968230357 8.449160951064737 0 0 0
1206 1 1.9468790311357247 20.73655497964824 9.503292074079557 0 0 0
1207 1 0.7121587981911494 18.561038757539453 9.815648190976965 0 0 0
1252 1 -0.5506918693311273 20.87144061465823 9.384741508180465 0 0 0
1253 1 -1.8808024995436452 18.7099532635448 9.885088525024528 0 0 0
1298 1 -1.8604351078976853 19.682302276972646 7.441198035818931 0 0 0
1344 1 0.6971823311712213 19.758776325204394 7.495261559896556 0 0 0
1205 1 0.7037588460287046 22.948037688344296 8.91193315963631 0 0 0
1251 1 -1.9440710363191096 22.933359274594117 8.896560122883004 0 0 0
1114 1 -0.570487621755061 24.015345215608715 10.734893187012002 0 0 0
1159 1 1.983356286506981 24.196054674041665 10.773581479526388 0 0 0
1204 1 1.9193543518145704 25.157743276200392 8.263738328015206 0 0 0
1250 1 -0.6694139247119921 25.058277674734363 8.316692766555452 0 0 0
1113 1 0.8074746022200717 26.3159788253362 10.22083689203733 0 0 0
1158 1 -1.8011730047517116 26.20937108366232 10.129606106270284 0 0 0
1203 1 0.5287682736300385 27.27660477557306 7.785250411841078 0 0 0
1249 1 -1.9559547028065487 27.258993954597702 7.757288256555327 0 0 0
1157 1 1.8540526612659363 28.387456399786938 9.744050120829804 0 0 0
1112 1 -0.7410163595391406 28.498848698629676 9.59719132267811 0 0 0
1248 1 -0.7830903212483153 29.405929670642617 7.239030477862096 0 0 0
1202 1 1.7741502604152877 29.40695498654128 7.217186763197117 0 0 0
1111 1 0.44413238231771 30.597329938968123 9.125005329665399 0 0 0
1156 1 -2.0913319753762276 30.463799872233512 9.147858012937402 0 0 0
1018 1 -2.1437656429378396 34.00765877766278 10.592474924192864 0 0 0
1064 1 0.476967497338378 33.922117050342564 10.573694561607905 0 0 0
1109 1 0.5539949707893834 34.887036938806865 8.27519143826227 0 0 0
1110 1 -0.8488411954372188 32.70256151993084 8.538921185157088 0 0 0
1154 1 -2.015185033499756 35.04576231919262 8.158061143156411 0 0 0
1155 1 1.7828103721201072 32.8568057245836 8.639317693307607 0 0 0
1107 1 0.6877059573748087 39.381565170413154 7.131005670393594 0 0 0
1152 1 -1.8897420081924003 39.35381585287867 7.065139923300254 0 0 0
1016 1 -1.9917869888182838 38.3585586018291 9.531006570423733 0 0 0
1017 1 -0.695561271108638 36.177234006745884 9.986897890102075 0 0 0
1062 1 0.45385792039981665 38.25833232911624 9.437221080073874 0 0 0
1063 1 1.853546682532582 36.168070216152685 10.017444213450142 0 0 0
1108 1 -0.7388008071915976 37.06327447719536 7.566238570308768 0 0 0
1153 1 1.7119188656627686 37.184548929867006 7.677310449807847 0 0 0
1014 1 -1.9443704048217474 42.71001968462275 8.51792073435227 0 0 0
1015 1 -0.529421095993187 40.532061087635846 8.925781908155054 0 0 0
1060 1 0.56208738958202 42.58960698495948 8.441801855722952 0 0 0
1061 1 1.9374876610928409 40.49901195723983 9.017174599980256 0 0 0
924 1 0.4169331789229554 46.19595288875122 10.020031266161958 0 0 0
925 1 1.8194980453062475 43.89308156308809 10.276634677253284 0 0 0
968 1 -2.1295214610567514 46.13311706060737 9.921754914268726 0 0 0
969 1 -0.8015688243598486 43.9405894757208 10.404367411991233 0 0 0
1013 1 -0.6570054368595948 44.87532883269629 8.066217572240086 0 0 0
1059 1 1.9448290688661933 44.86363634160074 8.061619218175656 0 0 0
1058 1 0.8420896387718088 46.91369156236709 7.522399996432277 0 0 0
923 1 1.7833898215467103 48.32048673625804 9.375901172733464 0 0 0
967 1 -0.8474687365717641 48.31962959436772 9.709963216349665 0 0 0
1012 1 -1.608395603275707 46.92501154432966 7.789035191588754 0 0 0
6156 1 -0.8041813447564786 51.905750040752956 10.628874049149372 0 0 0
6201 1 1.8446602419452733 51.925404374516106 10.462224667930835 0 0 0
6245 1 -0.790079235247853 52.37104174052333 7.912433620219122 0 0 0
6246 1 0.5070764996727274 50.41640685207086 8.950681583170867 0 0 0
6289 1 1.8522917133426273 52.34351321107533 7.815206733132348 0 0 0
6290 1 -2.0788835868392384 50.428369518011806 8.893188446336177 0 0 0
6155 1 -2.0240220202442574 54.01007682467763 9.372639540427661 0 0 0
6154 1 -0.7426123487669997 55.9375500324015 8.298706144261283 0 0 0
6199 1 1.7452686984769452 55.94274453354353 8.321353229289283 0 0 0
6200 1 0.5795881640831946 53.95892721036592 9.381302100518084 0 0 0
6110 1 -0.6818644355744985 55.75147176968004 10.746029066283157 0 0 0
6065 1 1.8836574986269898 55.56280949571983 10.771506373734884 0 0 0
6063 1 1.999486026176616 59.473359965252065 8.611079968325422 0 0 0
6064 1 0.6717472341173032 57.603475854263664 9.7657586062486 0 0 0
6108 1 -0.5397304300200955 59.53571419836289 8.620232813042035 0 0 0
6109 1 -1.9775657946738527 57.63804551507218 9.727962656134753 0 0 0
5969 1 -0.6447297176694418 63.11464862004708 9.147761940097256 0 0 0
5970 1 0.5775552310732808 61.1960950093185 10.191288661388075 0 0 0
6016 1 1.8897129706642275 63.161901624865365 9.166602721532765 0 0 0
6017 1 -2.0044861428405993 61.102322352036005 10.128182411140857 0 0 0
6062 1 0.4102953589592672 61.46931318503433 7.615699579736337 0 0 0
6107 1 -2.166040049233991 61.588762470017485 7.549566275774831 0 0 0
5872 1 -0.8876511287340132 66.61508667437273 9.79286189884652 0 0 0
5920 1 1.7226041353253947 66.66593964093074 9.571019029461086 0 0 0
5968 1 0.44917531286253976 64.95612863959727 8.113744607870652 0 0 0
6015 1 -2.0731715626047125 65.07387609352801 8.3102671029816 0 0 0
5873 1 -2.0612383159408605 64.59136917358212 10.733709468538775 0 0 0
5921 1 0.44243430343970214 64.77774826470619 10.564150154153074 0 0 0
5773 1 1.879194704226618 70.33235641819346 10.145703844647848 0 0 0
5822 1 -0.7218257450966679 70.3157134801975 10.20787180129853 0 0 0
5870 1 -0.9056614696983125 70.66524917559472 7.668013076595547 0 0 0
5871 1 -1.90852969314021 68.54952749176012 8.747132882637647 0 0 0
5918 2 1.7728986855739677 70.5553647067432 7.6058612483811485 0 0 0
5919 1 0.6873032158605895 68.744915276957 8.734603087848267 0 0 0
5672 1 -0.7695032775492145 73.9281053419879 10.468527175835273 0 0 0
5722 1 1.769156155126958 74.02254954148671 10.472445041304907 0 0 0
5771 1 1.731737828864007 74.16143713169487 7.828023904630881 0 0 0
5772 1 0.49628861594147966 72.2288491537119 9.14518463864847 0 0 0
5820 1 -0.807163190365941 74.21347272471067 8.000308561363568 0 0 0
5821 1 -2.1665601544873025 72.33507098497331 9.189175536069836 0 0 0
5670 1 -0.7461248739118332 77.78247860147302 8.175719629953916 0 0 0
5671 1 0.6307052496697928 75.85171952991497 9.359901330664776 0 0 0
5720 1 1.7716198837844663 77.80266414807579 8.334613486819405 0 0 0
5721 1 -1.9951662986751575 75.90145164929328 9.314088108519208 0 0 0
5719 1 -2.020639633937505 79.76498295718532 7.3781318806285565 0 0 0
5669 1 0.5517706689202708 79.76287430470259 7.440402181994631 0 0 0
5567 1 -0.6841289545123314 81.44973637247934 8.77856206160258 0 0 0
5568 1 -1.9299842712809443 79.4944801640308 9.831976551669717 0 0 0
5618 1 1.6930835699468356 81.35799185983466 8.911712948142663 0 0 0
5619 1 0.59882049071751 79.44712616200043 9.826836915400564 0 0 0