#
# General simulation parameters
#
dimension    3
atom_style   atomic
units        metal
#
# Read in equilibriated sample at 300K
#
read_data initial_lattice_300K.lammps
Reading data file ...
  orthogonal box = (-2.573223 0 0) to (2.573223 200 173.20508)
  1 by 2 by 2 MPI processor grid
  reading atoms ...
  14782 atoms
  reading velocities ...
  14782 velocities
  read_data CPU = 0.097 seconds
#
# Define atomic masses of atom (Cu and Zr)
#
mass 1 63.546
mass 2 58.693
#
# Define empirical interatomic force
#
pair_style    eam/alloy
pair_coeff    * * Cu_Ni_Fischer_2018.eam.alloy Cu Ni
#
# Define neighbour list parameters
#
neighbor   0.3  bin
neigh_modify  every  1  delay  0  check  yes
#
# Define thermodynamic variables to outputted
#
thermo 100
thermo_style custom step time temp pe ke press vol
#
# Set time step of 1 femto-second
#
timestep 0.001
#
# Store every 1000th configuration for visualization in Ovito
#
dump 1 all atom 1000 dump_hybrid_md-mc.atom
#
# Perform MC swap
#
fix 1 all nvt temp 300.0 300.0 0.001
fix 2 all atom/swap 100 10 29494 300.0 ke yes types 1 2
run 10000
Neighbor list info ...
  update: every = 1 steps, delay = 0 steps, check = yes
  max neighbors/atom: 2000, page size: 100000
  master list distance cutoff = 7.024884
  ghost atom cutoff = 7.024884
  binsize = 3.512442, bins = 2 57 50
  1 neighbor lists, perpetual/occasional/extra = 1 0 0
  (1) pair eam/alloy, perpetual
      attributes: half, newton on
      pair build: half/bin/atomonly/newton
      stencil: half/bin/3d
      bin: standard
Per MPI rank memory allocation (min/avg/max) = 7.273 | 7.274 | 7.276 Mbytes
   Step          Time           Temp          PotEng         KinEng         Press          Volume    
         0   0              300.75489     -51899.064      574.62055     -4994.7673      178278.12    
       100   0.1            298.83434     -51897.349      570.95116     -4984.2358      178278.12    
       200   0.2            298.35149     -51888.706      570.02862     -4750.3416      178278.12    
       300   0.3            298.03402     -51893.934      569.42207     -4900.1298      178278.12    
       400   0.4            301.47631     -51896.891      575.99888     -4931.812       178278.12    
       500   0.5            300.78148     -51894.624      574.67135     -4859.021       178278.12    
       600   0.6            300.58516     -51893.795      574.29627     -4857.5559      178278.12    
       700   0.7            296.73095     -51889.832      566.93243     -4764.8282      178278.12    
       800   0.8            298.3063      -51893.507      569.94229     -4836.25        178278.12    
       900   0.9            299.45195     -51889.553      572.13116     -4727.2701      178278.12    
      1000   1              297.16481     -51902.349      567.76135     -5167.2086      178278.12    
      1100   1.1            301.97552     -51893.724      576.95267     -4873.0958      178278.12    
      1200   1.2            299.65679     -51896.646      572.52253     -4949.0853      178278.12    
      1300   1.3            302.07562     -51894.668      577.14393     -4849.6965      178278.12    
      1400   1.4            299.02846     -51889.457      571.32205     -4689.0772      178278.12    
      1500   1.5            300.27306     -51897.029      573.69998     -4934.9309      178278.12    
      1600   1.6            302.13678     -51895.213      577.26077     -4874.4293      178278.12    
      1700   1.7            300.75943     -51893.728      574.62922     -4864.4141      178278.12    
      1800   1.8            298.14045     -51888.364      569.62541     -4703.2286      178278.12    
      1900   1.9            300.96108     -51891.254      575.0145      -4714.3887      178278.12    
      2000   2              299.08457     -51899.136      571.42924     -4954.0753      178278.12    
      2100   2.1            300.81824     -51897.69       574.74159     -4880.8447      178278.12    
      2200   2.2            299.33258     -51886.258      571.90309     -4586.1765      178278.12    
      2300   2.3            295.96074     -51892.334      565.46087     -4848.1003      178278.12    
      2400   2.4            299.46222     -51891.223      572.15078     -4692.8082      178278.12    
      2500   2.5            299.09481     -51902.111      571.44881     -5085.4676      178278.12    
      2600   2.6            299.96448     -51895.656      573.11039     -4861.3163      178278.12    
      2700   2.7            296.67803     -51894.817      566.83133     -4907.317       178278.12    
      2800   2.8            297.54449     -51896.743      568.48679     -4882.9616      178278.12    
      2900   2.9            299.35831     -51895.116      571.95226     -4811.6818      178278.12    
      3000   3              298.15055     -51892.33       569.64471     -4766.0326      178278.12    
      3100   3.1            298.1013      -51898.754      569.55061     -4995.0303      178278.12    
      3200   3.2            301.39064     -51891.307      575.83521     -4700.3154      178278.12    
      3300   3.3            303.57069     -51896.95       580.00041     -4900.0172      178278.12    
      3400   3.4            298.83331     -51892.988      570.94918     -4812.4667      178278.12    
      3500   3.5            298.42044     -51890.78       570.16037     -4745.321       178278.12    
      3600   3.6            300.70257     -51901.729      574.52059     -5040.1559      178278.12    
      3700   3.7            297.51542     -51892.472      568.43123     -4820.1592      178278.12    
      3800   3.8            300.45217     -51899.349      574.04218     -4962.0416      178278.12    
      3900   3.9            301.16092     -51893.919      575.3963      -4787.365       178278.12    
      4000   4              298.19166     -51891.712      569.72326     -4776.5015      178278.12    
      4100   4.1            298.18447     -51894.146      569.70953     -4905.7045      178278.12    
      4200   4.2            302.56393     -51895.258      578.0769      -4876.0461      178278.12    
      4300   4.3            299.71856     -51890.39       572.64054     -4751.6885      178278.12    
      4400   4.4            302.10202     -51890.896      577.19437     -4766.8866      178278.12    
      4500   4.5            297.71616     -51897.442      568.81477     -4974.3614      178278.12    
      4600   4.6            300.97371     -51896.308      575.03862     -4915.0048      178278.12    
      4700   4.7            301.40072     -51900.882      575.85447     -4993.4985      178278.12    
      4800   4.8            303.32672     -51891.352      579.53427     -4723.9316      178278.12    
      4900   4.9            298.42274     -51900.058      570.16476     -5009.6423      178278.12    
      5000   5              299.82274     -51896.41       572.83958     -4940.152       178278.12    
      5100   5.1            301.73033     -51891.353      576.48423     -4824.6115      178278.12    
      5200   5.2            298.52938     -51896.201      570.3685      -4941.9662      178278.12    
      5300   5.3            296.96833     -51891.967      567.38598     -4883.8111      178278.12    
      5400   5.4            300.93119     -51892.138      574.95738     -4854.7223      178278.12    
      5500   5.5            297.04751     -51894.33       567.53725     -4915.6005      178278.12    
      5600   5.6            302.29818     -51892.924      577.56915     -4779.558       178278.12    
      5700   5.7            301.51265     -51900.076      576.06832     -4987.7576      178278.12    
      5800   5.8            302.58777     -51891.886      578.12243     -4752.239       178278.12    
      5900   5.9            298.82704     -51898.667      570.93721     -4951.7723      178278.12    
      6000   6              300.34201     -51889.943      573.8317      -4677.4702      178278.12    
      6100   6.1            300.08061     -51894.244      573.33227     -4773.5034      178278.12    
      6200   6.2            300.38611     -51903.973      573.91597     -5117.6822      178278.12    
      6300   6.3            300.98878     -51892.009      575.06741     -4788.5394      178278.12    
      6400   6.4            298.96095     -51901.935      571.19305     -5070.6015      178278.12    
      6500   6.5            301.22934     -51888.78       575.52703     -4598.3611      178278.12    
      6600   6.6            299.43841     -51899.975      572.10528     -4973.2926      178278.12    
      6700   6.7            296.30547     -51896.116      566.11952     -4870.1549      178278.12    
      6800   6.8            296.95088     -51896.26       567.35264     -4829.1391      178278.12    
      6900   6.9            301.22518     -51893.171      575.51909     -4743.8414      178278.12    
      7000   7              300.37518     -51895.226      573.89507     -4832.0614      178278.12    
      7100   7.1            300.61079     -51895.418      574.34523     -4814.9564      178278.12    
      7200   7.2            301.07045     -51889.452      575.22346     -4676.9927      178278.12    
      7300   7.3            299.48054     -51898.556      572.18579     -4917.7869      178278.12    
      7400   7.4            299.5593      -51893.506      572.33626     -4774.179       178278.12    
      7500   7.5            300.43984     -51902.212      574.01862     -5041.9388      178278.12    
      7600   7.6            303.8519      -51896.445      580.53768     -4845.3372      178278.12    
      7700   7.7            298.92955     -51898.512      571.13306     -4963.2025      178278.12    
      7800   7.8            297.49284     -51894.985      568.38809     -4851.5637      178278.12    
      7900   7.9            299.3456      -51898.677      571.92798     -4970.0341      178278.12    
      8000   8              299.46877     -51891.009      572.16329     -4729.1672      178278.12    
      8100   8.1            299.5958      -51895.391      572.40601     -4830.9009      178278.12    
      8200   8.2            300.65573     -51894.468      574.43109     -4783.2322      178278.12    
      8300   8.3            300.80841     -51897.558      574.72281     -4918.2903      178278.12    
      8400   8.4            300.18687     -51896.42       573.5353      -4855.0934      178278.12    
      8500   8.5            294.81518     -51891.572      563.27217     -4823.5572      178278.12    
      8600   8.6            301.62949     -51901.812      576.29155     -4982.0529      178278.12    
      8700   8.7            299.54698     -51899.473      572.31273     -4958.6194      178278.12    
      8800   8.8            300.10405     -51893.215      573.37706     -4779.47        178278.12    
      8900   8.9            305.10881     -51898.67       582.93912     -4875.6431      178278.12    
      9000   9              299.48221     -51891.612      572.18898     -4747.9669      178278.12    
      9100   9.1            302.09426     -51890.1        577.17953     -4642.0038      178278.12    
      9200   9.2            298.19286     -51898.451      569.72555     -4937.7858      178278.12    
      9300   9.3            298.25164     -51901.921      569.83786     -5035.4379      178278.12    
      9400   9.4            300.34109     -51892.065      573.82994     -4721.3116      178278.12    
      9500   9.5            298.19598     -51901.93       569.73152     -5026.9227      178278.12    
      9600   9.6            298.38741     -51892.309      570.09726     -4769.2484      178278.12    
      9700   9.7            296.38495     -51899.246      566.27137     -5029.7749      178278.12    
      9800   9.8            300.30932     -51893.053      573.76925     -4731.6136      178278.12    
      9900   9.9            299.45099     -51892.955      572.12932     -4725.4822      178278.12    
     10000   10             299.41591     -51891.257      572.0623      -4693.1504      178278.12    
Loop time of 128.995 on 4 procs for 10000 steps with 14782 atoms

Performance: 6.698 ns/day, 3.583 hours/ns, 77.522 timesteps/s, 1.146 Matom-step/s
99.4% CPU use with 4 MPI tasks x no OpenMP threads

MPI task timing breakdown:
Section |  min time  |  avg time  |  max time  |%varavg| %total
---------------------------------------------------------------
Pair    | 105.72     | 106.69     | 107.26     |   5.7 | 82.71
Neigh   | 3.6597     | 3.7065     | 3.7336     |   1.5 |  2.87
Comm    | 2.5374     | 3.0988     | 4.0412     |  32.7 |  2.40
Output  | 0.034282   | 0.036008   | 0.038155   |   0.8 |  0.03
Modify  | 15.073     | 15.086     | 15.099     |   0.2 | 11.69
Other   |            | 0.3761     |            |       |  0.29

Nlocal:         3695.5 ave        3701 max        3687 min
Histogram: 1 0 0 0 0 0 0 2 0 1
Nghost:        14363.2 ave       14400 max       14339 min
Histogram: 1 0 1 1 0 0 0 0 0 1
Neighs:         241632 ave      242572 max      240318 min
Histogram: 1 0 0 0 1 0 0 0 1 1

Total # of neighbors = 966529
Ave neighs/atom = 65.385536
Neighbor list builds = 755
Dangerous builds = 0
write_data final_lattice_300K.lammps
System init for write_data ...

Total wall time: 0:02:09
