FCC crystal

14782 atoms

2 atom types

-2.573223 2.573223 xlo xhi
0.000000 200.000000 ylo yhi
0.000000 173.205081 zlo zhi

Atoms

1 1 -0.643306 1.086992 56.844884
2 1 1.929917 1.086992 56.844884
3 1 0.643306 4.244380 53.974349
4 1 -0.643306 2.071104 54.467279
5 1 0.643306 199.897828 54.960210
6 1 -0.643306 197.724552 55.453140
7 1 -1.929917 4.244380 53.974349
8 1 1.929917 2.071104 54.467279
9 1 -1.929917 199.897828 54.960210
10 1 1.929917 197.724552 55.453140
11 1 0.643306 13.921594 49.625024
12 1 1.929917 11.748319 50.117955
13 1 0.643306 9.575043 50.610885
14 1 1.929917 7.401767 51.103815
15 1 0.643306 5.228491 51.596745
16 1 1.929917 3.055215 52.089675
17 1 0.643306 0.881940 52.582605
18 1 1.929917 198.708664 53.075536
19 1 0.643306 196.535388 53.568466
20 1 1.929917 194.362112 54.061396
21 1 -1.929917 13.921594 49.625024
22 1 -0.643306 11.748319 50.117955
23 1 -1.929917 9.575043 50.610885
24 1 -0.643306 7.401767 51.103815
25 1 -1.929917 5.228491 51.596745
26 1 -0.643306 3.055215 52.089675
27 1 -1.929917 0.881940 52.582605
28 1 -0.643306 198.708664 53.075536
29 1 -1.929917 196.535388 53.568466
30 1 -0.643306 194.362112 54.061396
31 1 -0.643306 17.078982 46.754490
32 1 -1.929917 14.905706 47.247420
33 1 -0.643306 12.732430 47.740350
34 1 -1.929917 10.559154 48.233281
35 1 -0.643306 8.385878 48.726211
36 1 -1.929917 6.212603 49.219141
37 1 -0.643306 4.039327 49.712071
38 1 -1.929917 1.866051 50.205001
39 1 -0.643306 199.692775 50.697931
40 1 -1.929917 197.519499 51.190862
41 1 -0.643306 195.346224 51.683792
42 1 -1.929917 193.172948 52.176722
43 1 1.929917 17.078982 46.754490
44 1 0.643306 14.905706 47.247420
45 1 1.929917 12.732430 47.740350
46 1 0.643306 10.559154 48.233281
47 1 1.929917 8.385878 48.726211
48 1 0.643306 6.212603 49.219141
49 1 1.929917 4.039327 49.712071
50 1 0.643306 1.866051 50.205001
51 1 1.929917 199.692775 50.697931
52 1 0.643306 197.519499 51.190862
53 1 1.929917 195.346224 51.683792
54 1 0.643306 193.172948 52.176722
55 1 0.643306 24.582921 42.898095
56 1 -0.643306 22.409645 43.391026
57 1 0.643306 20.236369 43.883956
58 1 -0.643306 18.063093 44.376886
59 1 0.643306 15.889817 44.869816
60 1 -0.643306 13.716542 45.362746
61 1 0.643306 11.543266 45.855676
62 1 -0.643306 9.369990 46.348607
63 1 0.643306 7.196714 46.841537
64 1 -0.643306 5.023438 47.334467
65 1 0.643306 2.850163 47.827397
66 1 -0.643306 0.676887 48.320327
67 1 0.643306 198.503611 48.813257
68 1 -0.643306 196.330335 49.306188
69 1 0.643306 194.157059 49.799118
70 1 -0.643306 191.983784 50.292048
71 1 0.643306 189.810508 50.784978
72 1 -1.929917 24.582921 42.898095
73 1 1.929917 22.409645 43.391026
74 1 -1.929917 20.236369 43.883956
75 1 1.929917 18.063093 44.376886
76 1 -1.929917 15.889817 44.869816
77 1 1.929917 13.716542 45.362746
78 1 -1.929917 11.543266 45.855676
79 1 1.929917 9.369990 46.348607
80 1 -1.929917 7.196714 46.841537
81 1 1.929917 5.023438 47.334467
82 1 -1.929917 2.850163 47.827397
83 1 1.929917 0.676887 48.320327
84 1 -1.929917 198.503611 48.813257
85 1 1.929917 196.330335 49.306188
86 1 -1.929917 194.157059 49.799118
87 1 1.929917 191.983784 50.292048
88 1 -1.929917 189.810508 50.784978
89 1 0.643306 29.913584 39.534631
90 1 1.929917 27.740308 40.027561
91 1 0.643306 25.567032 40.520491
92 1 1.929917 23.393756 41.013421
93 1 0.643306 21.220480 41.506352
94 1 1.929917 19.047205 41.999282
95 1 0.643306 16.873929 42.492212
96 1 1.929917 14.700653 42.985142
97 1 0.643306 12.527377 43.478072
98 1 1.929917 10.354101 43.971002
99 1 0.643306 8.180826 44.463933
100 1 1.929917 6.007550 44.956863
101 1 0.643306 3.834274 45.449793
102 1 1.929917 1.660998 45.942723
103 1 0.643306 199.487723 46.435653
104 1 1.929917 197.314447 46.928583
105 1 0.643306 195.141171 47.421514
106 1 1.929917 192.967895 47.914444
107 1 0.643306 190.794619 48.407374
108 1 1.929917 188.621344 48.900304
109 1 0.643306 186.448068 49.393234
110 1 -1.929917 29.913584 39.534631
111 1 -0.643306 27.740308 40.027561
112 1 -1.929917 25.567032 40.520491
113 1 -0.643306 23.393756 41.013421
114 1 -1.929917 21.220480 41.506352
115 1 -0.643306 19.047205 41.999282
116 1 -1.929917 16.873929 42.492212
117 1 -0.643306 14.700653 42.985142
118 1 -1.929917 12.527377 43.478072
119 1 -0.643306 10.354101 43.971002
120 1 -1.929917 8.180826 44.463933
121 1 -0.643306 6.007550 44.956863
122 1 -1.929917 3.834274 45.449793
123 1 -0.643306 1.660998 45.942723
124 1 -1.929917 199.487723 46.435653
125 1 -0.643306 197.314447 46.928583
126 1 -1.929917 195.141171 47.421514
127 1 -0.643306 192.967895 47.914444
128 1 -1.929917 190.794619 48.407374
129 1 -0.643306 188.621344 48.900304
130 1 -1.929917 186.448068 49.393234
131 1 -0.643306 37.417523 35.678236
132 1 -1.929917 35.244247 36.171166
133 1 -0.643306 33.070971 36.664097
134 1 -1.929917 30.897695 37.157027
135 1 -0.643306 28.724419 37.649957
136 1 -1.929917 26.551144 38.142887
137 1 -0.643306 24.377868 38.635817
138 1 -1.929917 22.204592 39.128747
139 1 -0.643306 20.031316 39.621678
140 1 -1.929917 17.858040 40.114608
141 1 -0.643306 15.684765 40.607538
142 1 -1.929917 13.511489 41.100468
143 1 -0.643306 11.338213 41.593398
144 1 -1.929917 9.164937 42.086328
145 1 -0.643306 6.991661 42.579259
146 1 -1.929917 4.818386 43.072189
147 1 -0.643306 2.645110 43.565119
148 1 -1.929917 0.471834 44.058049
149 1 -0.643306 198.298558 44.550979
150 1 -1.929917 196.125282 45.043909
151 1 -0.643306 193.952007 45.536840
152 1 -1.929917 191.778731 46.029770
153 1 -0.643306 189.605455 46.522700
154 1 -1.929917 187.432179 47.015630
155 1 -0.643306 185.258903 47.508560
156 1 1.929917 37.417523 35.678236
157 1 0.643306 35.244247 36.171166
158 1 1.929917 33.070971 36.664097
159 1 0.643306 30.897695 37.157027
160 1 1.929917 28.724419 37.649957
161 1 0.643306 26.551144 38.142887
162 1 1.929917 24.377868 38.635817
163 1 0.643306 22.204592 39.128747
164 1 1.929917 20.031316 39.621678
165 1 0.643306 17.858040 40.114608
166 1 1.929917 15.684765 40.607538
167 1 0.643306 13.511489 41.100468
168 1 1.929917 11.338213 41.593398
169 1 0.643306 9.164937 42.086328
170 1 1.929917 6.991661 42.579259
171 1 0.643306 4.818386 43.072189
172 1 1.929917 2.645110 43.565119
173 1 0.643306 0.471834 44.058049
174 1 1.929917 198.298558 44.550979
175 1 0.643306 196.125282 45.043909
176 1 1.929917 193.952007 45.536840
177 1 0.643306 191.778731 46.029770
178 1 1.929917 189.605455 46.522700
179 1 0.643306 187.432179 47.015630
180 1 1.929917 185.258903 47.508560
181 1 -0.643306 42.748186 32.314772
182 1 0.643306 40.574910 32.807702
183 1 -0.643306 38.401634 33.300632
184 1 0.643306 36.228358 33.793562
185 1 -0.643306 34.055082 34.286492
186 1 0.643306 31.881807 34.779423
187 1 -0.643306 29.708531 35.272353
188 1 0.643306 27.535255 35.765283
189 1 -0.643306 25.361979 36.258213
190 1 0.643306 23.188703 36.751143
191 1 -0.643306 21.015428 37.244073
192 1 0.643306 18.842152 37.737004
193 1 -0.643306 16.668876 38.229934
194 1 0.643306 14.495600 38.722864
195 1 -0.643306 12.322325 39.215794
196 1 0.643306 10.149049 39.708724
197 1 -0.643306 7.975773 40.201654
198 1 0.643306 5.802497 40.694585
199 1 -0.643306 3.629221 41.187515
200 1 0.643306 1.455946 41.680445
201 1 -0.643306 199.282670 42.173375
202 1 0.643306 197.109394 42.666305
203 1 -0.643306 194.936118 43.159235
204 1 0.643306 192.762842 43.652166
205 1 -0.643306 190.589567 44.145096
206 1 0.643306 188.416291 44.638026
207 1 -0.643306 186.243015 45.130956
208 1 0.643306 184.069739 45.623886
209 1 -0.643306 181.896463 46.116816
210 1 1.929917 42.748186 32.314772
211 1 -1.929917 40.574910 32.807702
212 1 1.929917 38.401634 33.300632
213 1 -1.929917 36.228358 33.793562
214 1 1.929917 34.055082 34.286492
215 1 -1.929917 31.881807 34.779423
216 1 1.929917 29.708531 35.272353
217 1 -1.929917 27.535255 35.765283
218 1 1.929917 25.361979 36.258213
219 1 -1.929917 23.188703 36.751143
220 1 1.929917 21.015428 37.244073
221 1 -1.929917 18.842152 37.737004
222 1 1.929917 16.668876 38.229934
223 1 -1.929917 14.495600 38.722864
224 1 1.929917 12.322325 39.215794
225 1 -1.929917 10.149049 39.708724
226 1 1.929917 7.975773 40.201654
227 1 -1.929917 5.802497 40.694585
228 1 1.929917 3.629221 41.187515
229 1 -1.929917 1.455946 41.680445
230 1 1.929917 199.282670 42.173375
231 1 -1.929917 197.109394 42.666305
232 1 1.929917 194.936118 43.159235
233 1 -1.929917 192.762842 43.652166
234 1 1.929917 190.589567 44.145096
235 1 -1.929917 188.416291 44.638026
236 1 1.929917 186.243015 45.130956
237 1 -1.929917 184.069739 45.623886
238 1 1.929917 181.896463 46.116816
239 1 1.929917 48.078849 28.951307
240 1 0.643306 45.905573 29.444237
241 1 1.929917 43.732297 29.937168
242 1 0.643306 41.559021 30.430098
243 1 1.929917 39.385746 30.923028
244 1 0.643306 37.212470 31.415958
245 1 1.929917 35.039194 31.908888
246 1 0.643306 32.865918 32.401818
247 1 1.929917 30.692642 32.894749
248 1 0.643306 28.519367 33.387679
249 1 1.929917 26.346091 33.880609
250 1 0.643306 24.172815 34.373539
251 1 1.929917 21.999539 34.866469
252 1 0.643306 19.826263 35.359399
253 1 1.929917 17.652988 35.852330
254 1 0.643306 15.479712 36.345260
255 1 1.929917 13.306436 36.838190
256 1 0.643306 11.133160 37.331120
257 1 1.929917 8.959884 37.824050
258 1 0.643306 6.786609 38.316980
259 1 1.929917 4.613333 38.809911
260 1 0.643306 2.440057 39.302841
261 1 1.929917 0.266781 39.795771
262 1 0.643306 198.093505 40.288701
263 1 1.929917 195.920230 40.781631
264 1 0.643306 193.746954 41.274561
265 1 1.929917 191.573678 41.767492
266 1 0.643306 189.400402 42.260422
267 1 1.929917 187.227126 42.753352
268 1 0.643306 185.053851 43.246282
269 1 1.929917 182.880575 43.739212
270 1 0.643306 180.707299 44.232142
271 1 1.929917 178.534023 44.725073
272 1 -0.643306 48.078849 28.951307
273 1 -1.929917 45.905573 29.444237
274 1 -0.643306 43.732297 29.937168
275 1 -1.929917 41.559021 30.430098
276 1 -0.643306 39.385746 30.923028
277 1 -1.929917 37.212470 31.415958
278 1 -0.643306 35.039194 31.908888
279 1 -1.929917 32.865918 32.401818
280 1 -0.643306 30.692642 32.894749
281 1 -1.929917 28.519367 33.387679
282 1 -0.643306 26.346091 33.880609
283 1 -1.929917 24.172815 34.373539
284 1 -0.643306 21.999539 34.866469
285 1 -1.929917 19.826263 35.359399
286 1 -0.643306 17.652988 35.852330
287 1 -1.929917 15.479712 36.345260
288 1 -0.643306 13.306436 36.838190
289 1 -1.929917 11.133160 37.331120
290 1 -0.643306 8.959884 37.824050
291 1 -1.929917 6.786609 38.316980
292 1 -0.643306 4.613333 38.809911
293 1 -1.929917 2.440057 39.302841
294 1 -0.643306 0.266781 39.795771
295 1 -1.929917 198.093505 40.288701
296 1 -0.643306 195.920230 40.781631
297 1 -1.929917 193.746954 41.274561
298 1 -0.643306 191.573678 41.767492
299 1 -1.929917 189.400402 42.260422
300 1 -0.643306 187.227126 42.753352
301 1 -1.929917 185.053851 43.246282
302 1 -0.643306 182.880575 43.739212
303 1 -1.929917 180.707299 44.232142
304 1 -0.643306 178.534023 44.725073
305 1 -0.643306 49.062960 26.573703
306 1 -1.929917 46.889684 27.066633
307 1 -0.643306 44.716409 27.559563
308 1 -1.929917 42.543133 28.052494
309 1 -0.643306 40.369857 28.545424
310 1 -1.929917 38.196581 29.038354
311 1 -0.643306 36.023305 29.531284
312 1 -1.929917 33.850030 30.024214
313 1 -0.643306 31.676754 30.517144
314 1 -1.929917 29.503478 31.010075
315 1 -0.643306 27.330202 31.503005
316 1 -1.929917 25.156927 31.995935
317 1 -0.643306 22.983651 32.488865
318 1 -1.929917 20.810375 32.981795
319 1 -0.643306 18.637099 33.474725
320 1 -1.929917 16.463823 33.967656
321 1 -0.643306 14.290548 34.460586
322 1 -1.929917 12.117272 34.953516
323 1 -0.643306 9.943996 35.446446
324 1 -1.929917 7.770720 35.939376
325 1 -0.643306 5.597444 36.432306
326 1 -1.929917 3.424169 36.925237
327 1 -0.643306 1.250893 37.418167
328 1 -1.929917 199.077617 37.911097
329 1 -0.643306 196.904341 38.404027
330 1 -1.929917 194.731065 38.896957
331 1 -0.643306 192.557790 39.389887
332 1 -1.929917 190.384514 39.882818
333 1 -0.643306 188.211238 40.375748
334 1 -1.929917 186.037962 40.868678
335 1 -0.643306 183.864686 41.361608
336 1 -1.929917 181.691411 41.854538
337 1 -0.643306 179.518135 42.347468
338 1 -1.929917 177.344859 42.840399
339 1 -0.643306 175.171583 43.333329
340 1 1.929917 49.062960 26.573703
341 1 0.643306 46.889684 27.066633
342 1 1.929917 44.716409 27.559563
343 1 0.643306 42.543133 28.052494
344 1 1.929917 40.369857 28.545424
345 1 0.643306 38.196581 29.038354
346 1 1.929917 36.023305 29.531284
347 1 0.643306 33.850030 30.024214
348 1 1.929917 31.676754 30.517144
349 1 0.643306 29.503478 31.010075
350 1 1.929917 27.330202 31.503005
351 1 0.643306 25.156927 31.995935
352 1 1.929917 22.983651 32.488865
353 1 0.643306 20.810375 32.981795
354 1 1.929917 18.637099 33.474725
355 1 0.643306 16.463823 33.967656
356 1 1.929917 14.290548 34.460586
357 1 0.643306 12.117272 34.953516
358 1 1.929917 9.943996 35.446446
359 1 0.643306 7.770720 35.939376
360 1 1.929917 5.597444 36.432306
361 1 0.643306 3.424169 36.925237
362 1 1.929917 1.250893 37.418167
363 1 0.643306 199.077617 37.911097
364 1 1.929917 196.904341 38.404027
365 1 0.643306 194.731065 38.896957
366 1 1.929917 192.557790 39.389887
367 1 0.643306 190.384514 39.882818
368 1 1.929917 188.211238 40.375748
369 1 0.643306 186.037962 40.868678
370 1 1.929917 183.864686 41.361608
371 1 0.643306 181.691411 41.854538
372 1 1.929917 179.518135 42.347468
373 1 0.643306 177.344859 42.840399
374 1 1.929917 175.171583 43.333329
375 1 0.643306 47.873796 24.689029
376 1 -0.643306 45.700520 25.181959
377 1 0.643306 43.527244 25.674889
378 1 -0.643306 41.353969 26.167820
379 1 0.643306 39.180693 26.660750
380 1 -0.643306 37.007417 27.153680
381 1 0.643306 34.834141 27.646610
382 1 -0.643306 32.660865 28.139540
383 1 0.643306 30.487590 28.632470
384 1 -0.643306 28.314314 29.125401
385 1 0.643306 26.141038 29.618331
386 1 -0.643306 23.967762 30.111261
387 1 0.643306 21.794486 30.604191
388 1 -0.643306 19.621211 31.097121
389 1 0.643306 17.447935 31.590051
390 1 -0.643306 15.274659 32.082982
391 1 0.643306 13.101383 32.575912
392 1 -0.643306 10.928107 33.068842
393 1 0.643306 8.754832 33.561772
394 1 -0.643306 6.581556 34.054702
395 1 0.643306 4.408280 34.547632
396 1 -0.643306 2.235004 35.040563
397 1 0.643306 0.061728 35.533493
398 1 -0.643306 197.888453 36.026423
399 1 0.643306 195.715177 36.519353
400 1 -0.643306 193.541901 37.012283
401 1 0.643306 191.368625 37.505213
402 1 -0.643306 189.195350 37.998144
403 1 0.643306 187.022074 38.491074
404 1 -0.643306 184.848798 38.984004
405 1 0.643306 182.675522 39.476934
406 1 -0.643306 180.502246 39.969864
407 1 0.643306 178.328971 40.462794
408 1 -0.643306 176.155695 40.955725
409 1 0.643306 173.982419 41.448655
410 1 -1.929917 47.873796 24.689029
411 1 1.929917 45.700520 25.181959
412 1 -1.929917 43.527244 25.674889
413 1 1.929917 41.353969 26.167820
414 1 -1.929917 39.180693 26.660750
415 1 1.929917 37.007417 27.153680
416 1 -1.929917 34.834141 27.646610
417 1 1.929917 32.660865 28.139540
418 1 -1.929917 30.487590 28.632470
419 1 1.929917 28.314314 29.125401
420 1 -1.929917 26.141038 29.618331
421 1 1.929917 23.967762 30.111261
422 1 -1.929917 21.794486 30.604191
423 1 1.929917 19.621211 31.097121
424 1 -1.929917 17.447935 31.590051
425 1 1.929917 15.274659 32.082982
426 1 -1.929917 13.101383 32.575912
427 1 1.929917 10.928107 33.068842
428 1 -1.929917 8.754832 33.561772
429 1 1.929917 6.581556 34.054702
430 1 -1.929917 4.408280 34.547632
431 1 1.929917 2.235004 35.040563
432 1 -1.929917 0.061728 35.533493
433 1 1.929917 197.888453 36.026423
434 1 -1.929917 195.715177 36.519353
435 1 1.929917 193.541901 37.012283
436 1 -1.929917 191.368625 37.505213
437 1 1.929917 189.195350 37.998144
438 1 -1.929917 187.022074 38.491074
439 1 1.929917 184.848798 38.984004
440 1 -1.929917 182.675522 39.476934
441 1 1.929917 180.502246 39.969864
442 1 -1.929917 178.328971 40.462794
443 1 1.929917 176.155695 40.955725
444 1 -1.929917 173.982419 41.448655
445 1 0.643306 48.857907 22.311425
446 1 1.929917 46.684632 22.804355
447 1 0.643306 44.511356 23.297285
448 1 1.929917 42.338080 23.790215
449 1 0.643306 40.164804 24.283146
450 1 1.929917 37.991528 24.776076
451 1 0.643306 35.818253 25.269006
452 1 1.929917 33.644977 25.761936
453 1 0.643306 31.471701 26.254866
454 1 1.929917 29.298425 26.747796
455 1 0.643306 27.125150 27.240727
456 1 1.929917 24.951874 27.733657
457 1 0.643306 22.778598 28.226587
458 1 1.929917 20.605322 28.719517
459 1 0.643306 18.432046 29.212447
460 1 1.929917 16.258771 29.705377
461 1 0.643306 14.085495 30.198308
462 1 1.929917 11.912219 30.691238
463 1 0.643306 9.738943 31.184168
464 1 1.929917 7.565667 31.677098
465 1 0.643306 5.392392 32.170028
466 1 1.929917 3.219116 32.662958
467 1 0.643306 1.045840 33.155889
468 1 1.929917 198.872564 33.648819
469 1 0.643306 196.699288 34.141749
470 1 1.929917 194.526013 34.634679
471 1 0.643306 192.352737 35.127609
472 1 1.929917 190.179461 35.620539
473 1 0.643306 188.006185 36.113470
474 1 1.929917 185.832909 36.606400
475 1 0.643306 183.659634 37.099330
476 1 1.929917 181.486358 37.592260
477 1 0.643306 179.313082 38.085190
478 1 1.929917 177.139806 38.578120
479 1 0.643306 174.966530 39.071050
480 1 1.929917 172.793255 39.563981
481 1 0.643306 170.619979 40.056911
482 1 -1.929917 48.857907 22.311425
483 1 -0.643306 46.684632 22.804355
484 1 -1.929917 44.511356 23.297285
485 1 -0.643306 42.338080 23.790215
486 1 -1.929917 40.164804 24.283146
487 1 -0.643306 37.991528 24.776076
488 1 -1.929917 35.818253 25.269006
489 1 -0.643306 33.644977 25.761936
490 1 -1.929917 31.471701 26.254866
491 1 -0.643306 29.298425 26.747796
492 1 -1.929917 27.125150 27.240727
493 1 -0.643306 24.951874 27.733657
494 1 -1.929917 22.778598 28.226587
495 1 -0.643306 20.605322 28.719517
496 1 -1.929917 18.432046 29.212447
497 1 -0.643306 16.258771 29.705377
498 1 -1.929917 14.085495 30.198308
499 1 -0.643306 11.912219 30.691238
500 1 -1.929917 9.738943 31.184168
501 1 -0.643306 7.565667 31.677098
502 1 -1.929917 5.392392 32.170028
503 1 -0.643306 3.219116 32.662958
504 1 -1.929917 1.045840 33.155889
505 1 -0.643306 198.872564 33.648819
506 1 -1.929917 196.699288 34.141749
507 1 -0.643306 194.526013 34.634679
508 1 -1.929917 192.352737 35.127609
509 1 -0.643306 190.179461 35.620539
510 1 -1.929917 188.006185 36.113470
511 1 -0.643306 185.832909 36.606400
512 1 -1.929917 183.659634 37.099330
513 1 -0.643306 181.486358 37.592260
514 1 -1.929917 179.313082 38.085190
515 1 -0.643306 177.139806 38.578120
516 1 -1.929917 174.966530 39.071050
517 1 -0.643306 172.793255 39.563981
518 1 -1.929917 170.619979 40.056911
519 1 -1.929917 49.842019 19.933821
520 1 -0.643306 47.668743 20.426751
521 1 -1.929917 45.495467 20.919681
522 1 -0.643306 43.322192 21.412611
523 1 -1.929917 41.148916 21.905541
524 1 -0.643306 38.975640 22.398472
525 1 -1.929917 36.802364 22.891402
526 1 -0.643306 34.629088 23.384332
527 1 -1.929917 32.455813 23.877262
528 1 -0.643306 30.282537 24.370192
529 1 -1.929917 28.109261 24.863122
530 1 -0.643306 25.935985 25.356053
531 1 -1.929917 23.762709 25.848983
532 1 -0.643306 21.589434 26.341913
533 1 -1.929917 19.416158 26.834843
534 1 -0.643306 17.242882 27.327773
535 1 -1.929917 15.069606 27.820703
536 1 -0.643306 12.896330 28.313634
537 1 -1.929917 10.723055 28.806564
538 1 -0.643306 8.549779 29.299494
539 1 -1.929917 6.376503 29.792424
540 1 -0.643306 4.203227 30.285354
541 1 -1.929917 2.029952 30.778284
542 1 -0.643306 199.856676 31.271215
543 1 -1.929917 197.683400 31.764145
544 1 -0.643306 195.510124 32.257075
545 1 -1.929917 193.336848 32.750005
546 1 -0.643306 191.163573 33.242935
547 1 -1.929917 188.990297 33.735865
548 1 -0.643306 186.817021 34.228795
549 1 -1.929917 184.643745 34.721726
550 1 -0.643306 182.470469 35.214656
551 1 -1.929917 180.297194 35.707586
552 1 -0.643306 178.123918 36.200516
553 1 -1.929917 175.950642 36.693446
554 1 -0.643306 173.777366 37.186376
555 1 -1.929917 171.604090 37.679307
556 1 -0.643306 169.430815 38.172237
557 1 0.643306 49.842019 19.933821
558 1 1.929917 47.668743 20.426751
559 1 0.643306 45.495467 20.919681
560 1 1.929917 43.322192 21.412611
561 1 0.643306 41.148916 21.905541
562 1 1.929917 38.975640 22.398472
563 1 0.643306 36.802364 22.891402
564 1 1.929917 34.629088 23.384332
565 1 0.643306 32.455813 23.877262
566 1 1.929917 30.282537 24.370192
567 1 0.643306 28.109261 24.863122
568 1 1.929917 25.935985 25.356053
569 1 0.643306 23.762709 25.848983
570 1 1.929917 21.589434 26.341913
571 1 0.643306 19.416158 26.834843
572 1 1.929917 17.242882 27.327773
573 1 0.643306 15.069606 27.820703
574 1 1.929917 12.896330 28.313634
575 1 0.643306 10.723055 28.806564
576 1 1.929917 8.549779 29.299494
577 1 0.643306 6.376503 29.792424
578 1 1.929917 4.203227 30.285354
579 1 0.643306 2.029952 30.778284
580 1 1.929917 199.856676 31.271215
581 1 0.643306 197.683400 31.764145
582 1 1.929917 195.510124 32.257075
583 1 0.643306 193.336848 32.750005
584 1 1.929917 191.163573 33.242935
585 1 0.643306 188.990297 33.735865
586 1 1.929917 186.817021 34.228795
587 1 0.643306 184.643745 34.721726
588 1 1.929917 182.470469 35.214656
589 1 0.643306 180.297194 35.707586
590 1 1.929917 178.123918 36.200516
591 1 0.643306 175.950642 36.693446
592 1 1.929917 173.777366 37.186376
593 1 0.643306 171.604090 37.679307
594 1 1.929917 169.430815 38.172237
595 1 -0.643306 48.652855 18.049147
596 1 0.643306 46.479579 18.542077
597 1 -0.643306 44.306303 19.035007
598 1 0.643306 42.133027 19.527937
599 1 -0.643306 39.959752 20.020867
600 1 0.643306 37.786476 20.513798
601 1 -0.643306 35.613200 21.006728
602 1 0.643306 33.439924 21.499658
603 1 -0.643306 31.266648 21.992588
604 1 0.643306 29.093373 22.485518
605 1 -0.643306 26.920097 22.978448
606 1 0.643306 24.746821 23.471379
607 1 -0.643306 22.573545 23.964309
608 1 0.643306 20.400269 24.457239
609 1 -0.643306 18.226994 24.950169
610 1 0.643306 16.053718 25.443099
611 1 -0.643306 13.880442 25.936029
612 1 0.643306 11.707166 26.428960
613 1 -0.643306 9.533890 26.921890
614 1 0.643306 7.360615 27.414820
615 1 -0.643306 5.187339 27.907750
616 1 0.643306 3.014063 28.400680
617 1 -0.643306 0.840787 28.893610
618 1 0.643306 198.667511 29.386540
619 1 -0.643306 196.494236 29.879471
620 1 0.643306 194.320960 30.372401
621 1 -0.643306 192.147684 30.865331
622 1 0.643306 189.974408 31.358261
623 1 -0.643306 187.801132 31.851191
624 1 0.643306 185.627857 32.344121
625 1 -0.643306 183.454581 32.837052
626 1 0.643306 181.281305 33.329982
627 1 -0.643306 179.108029 33.822912
628 1 0.643306 176.934754 34.315842
629 1 -0.643306 174.761478 34.808772
630 1 0.643306 172.588202 35.301702
631 1 -0.643306 170.414926 35.794633
632 1 0.643306 168.241650 36.287563
633 1 -0.643306 166.068375 36.780493
634 1 1.929917 48.652855 18.049147
635 1 -1.929917 46.479579 18.542077
636 1 1.929917 44.306303 19.035007
637 1 -1.929917 42.133027 19.527937
638 1 1.929917 39.959752 20.020867
639 1 -1.929917 37.786476 20.513798
640 1 1.929917 35.613200 21.006728
641 1 -1.929917 33.439924 21.499658
642 1 1.929917 31.266648 21.992588
643 1 -1.929917 29.093373 22.485518
644 1 1.929917 26.920097 22.978448
645 1 -1.929917 24.746821 23.471379
646 1 1.929917 22.573545 23.964309
647 1 -1.929917 20.400269 24.457239
648 1 1.929917 18.226994 24.950169
649 1 -1.929917 16.053718 25.443099
650 1 1.929917 13.880442 25.936029
651 1 -1.929917 11.707166 26.428960
652 1 1.929917 9.533890 26.921890
653 1 -1.929917 7.360615 27.414820
654 1 1.929917 5.187339 27.907750
655 1 -1.929917 3.014063 28.400680
656 1 1.929917 0.840787 28.893610
657 1 -1.929917 198.667511 29.386540
658 1 1.929917 196.494236 29.879471
659 1 -1.929917 194.320960 30.372401
660 1 1.929917 192.147684 30.865331
661 1 -1.929917 189.974408 31.358261
662 1 1.929917 187.801132 31.851191
663 1 -1.929917 185.627857 32.344121
664 1 1.929917 183.454581 32.837052
665 1 -1.929917 181.281305 33.329982
666 1 1.929917 179.108029 33.822912
667 1 -1.929917 176.934754 34.315842
668 1 1.929917 174.761478 34.808772
669 1 -1.929917 172.588202 35.301702
670 1 1.929917 170.414926 35.794633
671 1 -1.929917 168.241650 36.287563
672 1 1.929917 166.068375 36.780493
673 1 1.929917 49.636966 15.671543
674 1 0.643306 47.463690 16.164473
675 1 1.929917 45.290415 16.657403
676 1 0.643306 43.117139 17.150333
677 1 1.929917 40.943863 17.643263
678 1 0.643306 38.770587 18.136193
679 1 1.929917 36.597311 18.629124
680 1 0.643306 34.424036 19.122054
681 1 1.929917 32.250760 19.614984
682 1 0.643306 30.077484 20.107914
683 1 1.929917 27.904208 20.600844
684 1 0.643306 25.730932 21.093774
685 1 1.929917 23.557657 21.586705
686 1 0.643306 21.384381 22.079635
687 1 1.929917 19.211105 22.572565
688 1 0.643306 17.037829 23.065495
689 1 1.929917 14.864554 23.558425
690 1 0.643306 12.691278 24.051355
691 1 1.929917 10.518002 24.544285
692 1 0.643306 8.344726 25.037216
693 1 1.929917 6.171450 25.530146
694 1 0.643306 3.998175 26.023076
695 1 1.929917 1.824899 26.516006
696 1 0.643306 199.651623 27.008936
697 1 1.929917 197.478347 27.501866
698 1 0.643306 195.305071 27.994797
699 1 1.929917 193.131796 28.487727
700 1 0.643306 190.958520 28.980657
701 1 1.929917 188.785244 29.473587
702 1 0.643306 186.611968 29.966517
703 1 1.929917 184.438692 30.459447
704 1 0.643306 182.265417 30.952378
705 1 1.929917 180.092141 31.445308
706 1 0.643306 177.918865 31.938238
707 1 1.929917 175.745589 32.431168
708 1 0.643306 173.572313 32.924098
709 1 1.929917 171.399038 33.417028
710 1 0.643306 169.225762 33.909959
711 1 1.929917 167.052486 34.402889
712 1 0.643306 164.879210 34.895819
713 1 1.929917 162.705934 35.388749
714 1 -0.643306 49.636966 15.671543
715 1 -1.929917 47.463690 16.164473
716 1 -0.643306 45.290415 16.657403
717 1 -1.929917 43.117139 17.150333
718 1 -0.643306 40.943863 17.643263
719 1 -1.929917 38.770587 18.136193
720 1 -0.643306 36.597311 18.629124
721 1 -1.929917 34.424036 19.122054
722 1 -0.643306 32.250760 19.614984
723 1 -1.929917 30.077484 20.107914
724 1 -0.643306 27.904208 20.600844
725 1 -1.929917 25.730932 21.093774
726 1 -0.643306 23.557657 21.586705
727 1 -1.929917 21.384381 22.079635
728 1 -0.643306 19.211105 22.572565
729 1 -1.929917 17.037829 23.065495
730 1 -0.643306 14.864554 23.558425
731 1 -1.929917 12.691278 24.051355
732 1 -0.643306 10.518002 24.544285
733 1 -1.929917 8.344726 25.037216
734 1 -0.643306 6.171450 25.530146
735 1 -1.929917 3.998175 26.023076
736 1 -0.643306 1.824899 26.516006
737 1 -1.929917 199.651623 27.008936
738 1 -0.643306 197.478347 27.501866
739 1 -1.929917 195.305071 27.994797
740 1 -0.643306 193.131796 28.487727
741 1 -1.929917 190.958520 28.980657
742 1 -0.643306 188.785244 29.473587
743 1 -1.929917 186.611968 29.966517
744 1 -0.643306 184.438692 30.459447
745 1 -1.929917 182.265417 30.952378
746 1 -0.643306 180.092141 31.445308
747 1 -1.929917 177.918865 31.938238
748 1 -0.643306 175.745589 32.431168
749 1 -1.929917 173.572313 32.924098
750 1 -0.643306 171.399038 33.417028
751 1 -1.929917 169.225762 33.909959
752 1 -0.643306 167.052486 34.402889
753 1 -1.929917 164.879210 34.895819
754 1 -0.643306 162.705934 35.388749
755 1 -1.929917 48.447802 13.786869
756 1 -0.643306 46.274526 14.279799
757 1 -1.929917 44.101250 14.772729
758 1 -0.643306 41.927975 15.265659
759 1 -1.929917 39.754699 15.758589
760 1 -0.643306 37.581423 16.251519
761 1 -1.929917 35.408147 16.744450
762 1 -0.643306 33.234871 17.237380
763 1 -1.929917 31.061596 17.730310
764 1 -0.643306 28.888320 18.223240
765 1 -1.929917 26.715044 18.716170
766 1 -0.643306 24.541768 19.209100
767 1 -1.929917 22.368492 19.702030
768 1 -0.643306 20.195217 20.194961
769 1 -1.929917 18.021941 20.687891
770 1 -0.643306 15.848665 21.180821
771 1 -1.929917 13.675389 21.673751
772 1 -0.643306 11.502113 22.166681
773 1 -1.929917 9.328838 22.659611
774 1 -0.643306 7.155562 23.152542
775 1 -1.929917 4.982286 23.645472
776 1 -0.643306 2.809010 24.138402
777 1 -1.929917 0.635734 24.631332
778 1 -0.643306 198.462459 25.124262
779 1 -1.929917 196.289183 25.617192
780 1 -0.643306 194.115907 26.110123
781 1 -1.929917 191.942631 26.603053
782 1 -0.643306 189.769355 27.095983
783 1 -1.929917 187.596080 27.588913
784 1 -0.643306 185.422804 28.081843
785 1 -1.929917 183.249528 28.574773
786 1 -0.643306 181.076252 29.067704
787 1 -1.929917 178.902977 29.560634
788 1 -0.643306 176.729701 30.053564
789 1 -1.929917 174.556425 30.546494
790 1 -0.643306 172.383149 31.039424
791 1 -1.929917 170.209873 31.532354
792 1 -0.643306 168.036598 32.025285
793 1 -1.929917 165.863322 32.518215
794 1 -0.643306 163.690046 33.011145
795 1 -1.929917 161.516770 33.504075
796 1 -0.643306 159.343494 33.997005
797 1 0.643306 48.447802 13.786869
798 1 1.929917 46.274526 14.279799
799 1 0.643306 44.101250 14.772729
800 1 1.929917 41.927975 15.265659
801 1 0.643306 39.754699 15.758589
802 1 1.929917 37.581423 16.251519
803 1 0.643306 35.408147 16.744450
804 1 1.929917 33.234871 17.237380
805 1 0.643306 31.061596 17.730310
806 1 1.929917 28.888320 18.223240
807 1 0.643306 26.715044 18.716170
808 1 1.929917 24.541768 19.209100
809 1 0.643306 22.368492 19.702030
810 1 1.929917 20.195217 20.194961
811 1 0.643306 18.021941 20.687891
812 1 1.929917 15.848665 21.180821
813 1 0.643306 13.675389 21.673751
814 1 1.929917 11.502113 22.166681
815 1 0.643306 9.328838 22.659611
816 1 1.929917 7.155562 23.152542