LAMMPS data file via write_data, version 22 Jul 2025, timestep = 4959, units = metal

250 atoms
1 atom types

-0.03667425742514465 15.862652257425141 xlo xhi
0 15.825978000000001 ylo yhi
0 15.825978000000001 zlo zhi

Masses

1 183.841

Atoms # atomic

2 1 1.6631549937312786 1.6562734071058318 1.4663192884298797 0 0 0
4 1 4.844031507614104 1.6251152092351298 1.4978794050643014 0 0 0
12 1 1.6414326974966735 4.774520353987743 1.4999418297822438 0 0 0
14 1 4.83290886286119 4.77703531526079 1.4973384063616335 0 0 0
126 1 1.629269179249202 7.921856658287586 1.4911113952422188 0 0 0
158 1 4.819248087819045 7.92922419948864 1.4949593695215841 0 0 0
132 1 1.620283648946309 11.035216891752782 1.4977778117566387 0 0 0
49 1 0.5269381180468956 13.173660084767638 0.41223073093936835 0 0 0
134 1 4.812177418613958 11.100357864136761 1.4924050676426157 0 0 0
142 1 1.8364613458997596 14.658767215260186 1.896675136931228 0 0 0
144 1 4.834106326230639 14.28930720082053 1.5215516819825026 0 0 0
27 1 1.960829392737084 1.9506892020192996 4.996120788228925 0 0 0
26 1 0.5778689383141083 0.5153775003050767 3.578620813252708 0 0 0
28 1 3.4245550502613367 0.22177948582867746 3.271627974097465 0 0 0
58 1 4.9334680531021995 1.6907502986157563 4.737502070571913 0 0 0
30 1 6.436025845793768 0.03504175515686888 3.0841766127977395 0 0 0
37 1 1.654280890540749 4.783073901737711 4.68451637384029 0 0 0
36 1 0.07027372495448933 3.2038653354070554 3.111517959729803 0 0 0
38 1 3.265696001445324 3.2199462997253026 3.0720820267747935 0 0 0
39 1 4.813086131144077 4.795631294817677 4.65043323891824 0 0 0
40 1 6.443668638816182 3.2129748842124 3.0864678441563043 0 0 0
180 1 0.04475501457386268 6.344184522324692 3.081769348741135 0 0 0
47 1 3.2322013539133527 6.3595872284777935 3.074552582173847 0 0 0
48 1 6.425422931925152 6.340148488246004 3.0826565279823623 0 0 0
151 1 1.6350670881252827 7.930732353680507 4.658285898411437 0 0 0
80 1 4.823614371638294 14.255908418250314 7.830061921152683 0 -1 0
152 1 4.822117015890026 7.933985941217846 4.648005934324261 0 0 0
22 1 3.2261582970721365 9.510674681784598 3.0759631427959704 0 0 0
160 1 6.402962561469323 9.517191269488514 3.0644885688202574 0 0 0
166 1 0.020221087426742543 12.703778322888374 3.082305585824351 0 0 0
157 1 1.6283549772037 11.09456912520227 4.65438472202817 0 0 0
168 1 3.214030624642572 12.68172013103925 3.0683053963975264 0 0 0
170 1 4.8140494216249525 11.10141547203767 4.648294553557336 0 0 0
45 1 6.412295527624213 12.681499913522526 3.069104107504534 0 0 0
167 1 1.6672296552630024 14.229030929775062 4.7160475742923245 0 0 0
169 1 4.830207854781607 14.258221559525454 4.670193248687061 0 0 0
35 1 1.6578532065852782 1.6262133650274508 7.842925453087067 0 0 0
51 1 0.07087136928746143 0.05338176194725648 6.2713519575099035 0 0 0
67 1 4.845858155562026 1.5984915633302237 7.844429224239227 0 0 0
52 1 3.2586278928493817 0.021686455476949362 6.275320132340835 0 0 0
53 1 6.423383033720962 0.008895263386418384 6.243569467816758 0 0 0
196 1 1.6393409495959541 14.26519158602594 7.83303786764092 0 0 0
71 1 1.6302467991851877 4.762834885058056 7.820672344837764 0 0 0
156 1 0.03975237904020042 9.498520682125003 3.08442473892302 0 0 0
57 1 3.4295090019328818 3.355124778191346 6.423068240443819 0 0 0
41 1 6.449980674082785 3.20084722658978 6.208486483631061 0 0 0
61 1 0.039258732128786916 6.344756978136521 6.238038516934688 0 0 0
62 1 3.2379267372429714 6.369343728389849 6.248322205227136 0 0 0
63 1 6.416419289772735 6.344003026131017 6.19976275330489 0 0 0
186 1 1.63187868196474 7.928944163448035 7.816092702328164 0 0 0
176 1 0.03871835610252868 9.508204824276039 6.235711997634753 0 0 0
177 1 3.222240894351832 9.517132285917361 6.233154507378615 0 0 0
187 1 4.815916807382183 7.941011497233387 7.810413386918051 0 0 0
178 1 6.397495522642598 9.520546295134196 6.220753888900217 0 0 0
181 1 0.05053867584785535 12.666637824308795 6.262124863672201 0 0 0
191 1 1.6336612633327072 11.091586534719719 7.819880380371379 0 0 0
182 1 3.23724728455702 12.668924623910387 6.250575529347783 0 0 0
192 1 4.81326263597153 11.09600555194608 7.817273586838171 0 0 0
183 1 6.411693931543511 12.675898901119567 6.234630726547467 0 0 0
72 1 4.892141004639858 4.837305486827469 7.879200854959108 0 0 0
56 1 -0.006663170737864837 3.1840397027399083 6.247208027890401 0 0 0
73 1 7.902858734869868 4.678861968155154 7.750877853260563 0 0 0
76 1 0.04395900043518457 0.020330676960301983 9.403566969033411 0 0 0
78 1 3.2293300698647123 0.017885930840385034 9.414757005677016 0 0 0
68 1 6.40989057863113 0.0034874748921621753 9.408946789959936 0 0 0
86 1 0.039155841277477114 3.1771555893684704 9.403148345130997 0 0 0
66 1 3.237149681280531 3.190987806895074 9.424741264640817 0 0 0
90 1 6.402181489281568 3.162614393142349 9.407345690338076 0 0 0
96 1 0.04920611764743218 6.335509712435129 9.39400214357102 0 0 0
97 1 3.215489060286051 6.341497815288905 9.398873406168239 0 0 0
98 1 6.377469270936689 6.3349320607120285 9.383890121356574 0 0 0
206 1 0.044985456245381535 9.506596859163656 9.386363705822623 0 0 0
208 1 3.220581714251955 9.511802017852132 9.39781518511981 0 0 0
210 1 6.391692439689745 9.51695549191817 9.3860395788316 0 0 0
216 1 0.038185595391352946 12.674068557550346 9.391805282865766 0 0 0
218 1 3.222633008722018 12.677147450360371 9.405182493103252 0 0 0
220 1 6.400439177798785 12.676695050112 9.397934240658854 0 0 0
77 1 1.633741783453492 1.5982121911959275 10.991380780103775 0 0 0
101 1 0.038520372323619885 0.01950852594760559 12.561948737072333 0 0 0
79 1 4.814849382944411 1.5916934697916614 10.997509371298605 0 0 0
103 1 3.2237859377276896 0.01597960971692832 12.572248911422374 0 0 0
219 1 6.401686093112859 0.007150021482831041 12.574997871333807 0 0 0
87 1 1.6319447593738403 4.757299546133606 10.987622273050352 0 0 0
111 1 0.04006381473985088 3.1763044113673873 12.568752420350078 0 0 0
89 1 4.812562959488207 4.760739788723239 11.001498744938647 0 0 0
104 1 3.2215969495026666 3.1764668840376395 12.577205309497604 0 0 0
115 1 6.3983717757412 3.1676922041394615 12.576497498585049 0 0 0
121 1 0.04805082824372615 6.329353422150712 12.565330215659081 0 0 0
122 1 3.220231149787998 6.341070422395187 12.572043719281298 0 0 0
202 1 4.79178448710209 7.921475660093311 10.977527473882681 0 0 0
123 1 6.3899811211254764 6.335333932229826 12.574808670604792 0 0 0
242 1 1.6204185796259132 14.262471304460266 14.099825791976382 0 0 0
201 1 1.6461433258853888 7.919676210728662 10.977877164614954 0 0 0
231 1 0.13019084892081456 9.510996953355777 12.571407703208001 0 0 0
233 1 3.223577175305067 9.513714733830442 12.572998398349293 0 0 0
203 1 6.3759316905737435 9.493415442401057 12.551307465134338 0 0 0
207 1 1.6348621786467337 11.094599742274776 10.9768272509635 0 0 0
241 1 0.0055499430221985745 12.637732613909082 12.522451060151026 0 0 0
209 1 4.80564599338634 11.093502640262313 10.983241238370756 0 0 0
243 1 3.2163725006031796 12.673877683544275 12.572681077523047 0 0 0
245 1 6.397895424133295 12.670459751565758 12.567918455607021 0 0 0
217 1 1.6269324903705702 14.256063736717223 10.982246768150087 0 0 0
105 1 4.8108880580153155 14.25439036276852 10.992539862070535 0 -1 0
1 1 0.024963081309318336 0.017483472655320204 15.770482104792482 0 0 -1
102 1 1.6288260426807837 1.5942573936684377 14.156607846265521 0 0 0
3 1 3.21579387237566 0.012695710092451407 15.748465381469398 0 0 -1
5 1 4.811859235000218 1.5923510785525679 14.161673971275532 0 0 -1
146 1 6.408047511718163 0.014780016259999801 15.741983333478514 0 1 -1
113 1 1.634033269426776 4.759744894131565 14.153521661310084 0 0 0
11 1 0.0483446160156163 3.1961865520377706 15.73402746865248 0 0 -1
13 1 3.2376501449126853 3.1929224192734638 15.731111869995411 0 0 -1
114 1 4.813327275706361 4.761237634695223 14.157339278439242 0 0 0
15 1 6.4088817950982495 3.1787685746513903 15.741361757914715 0 0 -1
21 1 0.039962876492597596 6.332450079614982 15.73544317939713 0 0 -1
127 1 3.224949677786817 6.346444726171913 15.738295412181351 0 0 -1
23 1 6.39932067600054 6.346865193677292 15.740750391718777 0 0 -1
226 1 1.6365851138743874 7.9172030538688825 14.155224362112877 0 0 0
131 1 0.008225082826248582 9.457377669727865 15.702569531040634 0 0 -1
235 1 4.8068725226753966 7.926803976605516 14.154445107722198 0 0 0
133 1 3.2198689507300413 9.511458069917804 15.73578662134581 0 0 -1
135 1 6.402014109444603 9.512217921612672 15.733689905487031 0 0 -1
232 1 1.6417901989218835 11.122104840087427 14.18439009576348 0 0 0
244 1 4.809647923487117 14.259799171574839 14.16046130319644 0 0 0
234 1 4.806490781328151 11.097164096565495 14.156744302655918 0 0 0
143 1 3.2370954711785305 12.708993288080697 15.76966487801955 0 0 -1
145 1 6.4029487511122944 12.67637010863711 15.735460851028344 0 0 -1
175 1 7.8816670817920365 7.829023953321328 10.883854475042916 0 0 0
6 1 8.006532413420326 1.6013809979832863 1.5056086998156064 0 0 0
8 1 11.155878270462319 1.6018310276832066 1.5084118176464618 0 0 0
10 1 14.359011158410976 1.7066673989814145 1.515818833491208 0 0 0
16 1 7.9929266373809185 4.765670551841143 1.471435612653102 0 0 0
18 1 11.15744334853471 4.760899213317468 1.502133243126634 0 0 0
20 1 14.349905204055833 4.765678222259405 1.5002814418949544 0 0 0
128 1 7.992810622602535 7.925896215829785 1.495088255285578 0 0 0
129 1 11.16074634962952 7.920795292294295 1.5061109077690285 0 0 0
130 1 14.344286541785529 7.908936211059533 1.4949179906639825 0 0 0
136 1 8.002410688841861 11.100360062657552 1.4931239602231858 0 0 0
137 1 11.184288955810823 11.106095357845248 1.5683997756671264 0 0 0
140 1 14.346027028868427 11.046167357112605 1.5492681629670235 0 0 0
112 1 8.008610839420157 14.253980895413854 1.4933226024133393 0 0 0
148 1 11.164298017744308 14.20657025057685 1.402170706930252 0 0 0
150 1 14.829168870629323 15.07689533367495 2.3154055584558897 0 0 0
149 1 13.775367181603597 13.525415132154409 0.7905157033685194 0 0 0
159 1 8.027079475699178 1.565849194137674 4.656173751975896 0 0 0
44 1 11.124371485410617 1.6621445292424586 4.679086624023217 0 0 0
185 1 14.263169293721024 1.5410398553887228 4.617446595665672 0 1 0
42 1 9.556038261375964 3.2024871766057843 3.0878701245251445 0 0 0
227 1 12.736255114013444 3.170159605901706 3.07971286548641 0 0 0
43 1 11.188493023410926 4.764263802151809 4.648628189735893 0 0 0
46 1 14.346373281056186 4.752452745959722 4.653124679499989 -1 0 0
88 1 9.55855284039209 6.327734428037082 3.08654180147733 0 0 0
50 1 12.75289494085417 6.341075976295282 3.0736283469263976 0 0 0
55 1 9.578534889828283 9.513899681197698 3.071044454088605 0 0 0
153 1 7.98737619268174 7.958244925042838 4.636794507008609 0 0 0
154 1 11.154532085949121 7.911655519260148 4.649010860679363 0 0 0
164 1 12.75774957795688 9.508042744817569 3.097272303518028 0 0 0
155 1 14.346074987289656 7.921887827680204 4.657744535238517 0 0 0
172 1 9.612123759169911 12.71019532516919 3.0873659402608773 0 0 0
161 1 8.004547105862164 11.113207190709469 4.642618924141824 0 0 0
138 1 12.7638917768133 12.75355722803284 3.158072298449011 0 0 0
162 1 11.17053570710442 11.078116151879696 4.657659779244118 0 0 0
165 1 14.344853097568562 11.104975406695942 4.669906284767598 0 0 0
32 1 9.607631387707144 15.81857924934694 3.0835955161502047 0 -1 0
171 1 7.980974109257599 14.253638294380458 4.65251039629052 0 0 0
34 1 12.463569250637207 15.748763791405462 3.177329903181513 0 -1 0
174 1 14.398320892381676 14.274493925037865 4.78169689365538 0 0 0
31 1 8.002565060682848 1.5732845673780615 7.799407376479327 0 0 0
69 1 11.160108794702932 1.587774417213711 7.8064096966483465 0 0 0
239 1 14.338482289984734 1.5865411372361455 7.811053828885709 0 0 0
70 1 14.345565002529902 14.262069341911863 7.817440900983657 0 -1 0
59 1 9.563025369887916 3.1964290356085585 6.225578754921076 0 0 0
60 1 12.752453275018068 3.169793995396293 6.237727207898887 0 0 0
74 1 11.164188788156878 4.7461654374321505 7.79328091904503 0 0 0
75 1 14.344135634054789 4.758608421388377 7.8180478514730165 0 0 0
64 1 9.535775563028704 6.303439277441174 6.174336124505892 0 0 0
179 1 7.966717642331364 7.920531417089037 7.768416880704214 0 0 0
65 1 12.751141872411276 6.337544863475822 6.230008854818391 0 0 0
118 1 9.57325945721262 9.508050178947293 6.218180581734058 0 0 0
194 1 12.751446125672878 9.50378500931323 6.231414208303482 0 0 0
189 1 11.129363321202353 7.886399498003674 7.777297011060673 0 0 0
190 1 14.345988323874707 7.920962406435447 7.810394076419615 0 0 0
193 1 7.990173419794991 11.104017332287919 7.7919586435287975 0 0 0
184 1 9.601259252738958 12.694749276165421 6.209789031586405 0 0 0
222 1 11.15944735873649 11.093083807618477 7.791507833625782 0 0 0
163 1 12.73771269774973 12.69040398663216 6.228499471512509 0 0 0
195 1 14.336510282458224 11.091498580083847 7.802828727809973 0 0 0
54 1 9.615295339784241 15.814290338772777 6.208685400221076 0 -1 0
198 1 8.005431870400367 14.254425007923674 7.805385065983939 0 0 0
33 1 12.723654127491278 15.823955550682117 6.235096967064766 0 -1 0
199 1 11.167831912723187 14.253652655135568 7.837205956049993 0 0 0
82 1 9.579456458187394 0.0070439610332009295 9.392835720046875 0 0 0
84 1 12.757126653496385 0.014860107889594427 9.396460750244678 0 0 0
92 1 9.56540981602952 3.1522883338509047 9.380328891756744 0 0 0
94 1 12.754134326169833 3.1709976065818797 9.39389281858733 0 0 0
99 1 9.378333549805777 6.14993252521319 9.181851957249329 0 0 0
100 1 12.780518622552353 6.332786591573468 9.388817001346066 0 0 0
212 1 9.544121004950545 9.513123739843309 9.346947070089731 0 0 0
214 1 12.724994136351585 9.472918755070188 9.353534224664422 0 0 0
223 1 9.570608081117419 12.677257721464084 9.383386631988856 0 0 0
224 1 12.752793976550363 12.67162169368667 9.381575931839864 0 0 0
107 1 9.575506797049378 0.014570574167313756 12.564543035431088 0 0 0
81 1 7.988802399127133 1.5838063264762507 10.9840717715809 0 0 0
83 1 11.165009791053945 1.5906797436542053 10.97866632764968 0 0 0
109 1 12.759531772959656 0.032750697031113746 12.566890359966497 0 0 0
188 1 14.34849968832222 1.5970179773951236 10.981693952889017 0 0 0
91 1 7.974400882760908 4.733878828918554 10.981008659916089 0 0 0
117 1 9.57467893746898 3.1633457051567 12.565934191799913 0 0 0
85 1 12.753161735614615 3.1740010525549356 12.561260216371775 0 0 0
93 1 11.140576800719286 4.73574165016609 10.952153201916472 0 0 0
95 1 14.348315264953277 4.752809065110469 10.979414423474537 0 0 0
124 1 9.545972374056523 6.2999638691346735 12.582901063952203 0 0 0
125 1 12.730530787028835 6.30269008561786 12.534963136330662 0 0 0
237 1 9.372744126932652 9.299589441435357 12.35674157486083 0 0 0
204 1 10.795958035234927 7.568425274472601 10.631327449030756 0 0 0
230 1 12.241985456565523 8.960487737129215 12.016671969419269 0 0 0
205 1 14.421177225453906 7.921381154045077 10.979921597613284 0 0 0
211 1 7.973800858671975 11.093947583750785 10.962617928220485 0 0 0
247 1 9.585496833768389 12.6692797980581 12.568649835312675 0 0 0
213 1 11.145234133549819 11.11052729002135 10.936536145727533 0 0 0
249 1 12.761995052705547 12.691371198895787 12.55406559382607 0 0 0
215 1 14.324536155013508 11.061616417769901 10.910597921174856 0 0 0
221 1 7.992441793713 14.250209502360926 10.98486941565109 0 0 0
197 1 11.16737946541371 14.260943200760586 10.981533726258753 0 0 0
225 1 14.344740350900954 14.257708160531006 10.968259684566302 0 0 0
106 1 7.992045939570867 1.5894296197674715 14.157561800573335 0 0 0
7 1 9.581905025618237 0.013809177721313803 15.741214354551532 0 0 -1
141 1 14.945576522548862 11.786801848236662 14.85709823248566 -1 0 -1
108 1 11.172573402941074 1.5983643297359773 14.160013263408693 0 0 0
110 1 14.35163081111088 1.6069677382271161 14.1611620563093 0 0 0
116 1 7.981760483810519 4.747271781860911 14.156549311864413 0 0 0
17 1 9.580044517270911 3.1754450138408545 15.741085650276167 0 0 -1
119 1 11.15992896858504 4.747998728042481 14.148494709692587 0 0 0
19 1 12.751012885422053 3.192287510738977 15.735705514645037 0 0 -1
120 1 14.34416901915979 4.752623534375873 14.1467196756533 0 0 0
24 1 9.572801603223494 6.337750441722933 15.746909186874232 0 0 -1
25 1 12.7503535396526 6.329398929942965 15.73714804751532 0 0 -1
229 1 11.14906067466065 7.887969935862122 14.17463249990476 0 0 0
228 1 7.975209958041136 7.911028899829458 14.157735837602159 0 0 0
29 1 9.59011657019353 9.517520130571235 15.735950613815024 0 0 0
173 1 10.952006108681614 10.682920627086832 13.739316960147747 0 0 0
9 1 12.785931418315915 0.05757059323668232 15.803369546519082 0 0 -1
200 1 14.326789729681552 7.852881309657382 14.124688949975308 0 0 0
147 1 9.558482521604038 12.63589978311301 15.70090701263394 0 0 -1
236 1 7.972161762033348 11.06167082904062 14.12142235149228 0 0 0
238 1 12.26370196988578 12.171098084289063 15.231205141312941 0 0 0
240 1 13.683347744879427 10.3358524187225 13.39819035263647 0 0 0
246 1 7.992306547832352 14.250639137206011 14.150415673494573 0 0 0
248 1 11.175746387288218 14.317754207117355 14.143789828278543 0 0 0
250 1 14.34687866913403 14.300103408578993 14.115604617680887 0 0 0
139 1 12.761399900443342 9.499365842176124 15.759779846814485 0 0 -1

Velocities

2 0 0 0
4 0 0 0
12 0 0 0
14 0 0 0
126 0 0 0
158 0 0 0
132 0 0 0
49 0 0 0
134 0 0 0
142 0 0 0
144 0 0 0
27 0 0 0
26 0 0 0
28 0 0 0
58 0 0 0
30 0 0 0
37 0 0 0
36 0 0 0
38 0 0 0
39 0 0 0
40 0 0 0
180 0 0 0
47 0 0 0
48 0 0 0
151 0 0 0
80 0 0 0
152 0 0 0
22 0 0 0
160 0 0 0
166 0 0 0
157 0 0 0
168 0 0 0
170 0 0 0
45 0 0 0
167 0 0 0
169 0 0 0
35 0 0 0
51 0 0 0
67 0 0 0
52 0 0 0
53 0 0 0
196 0 0 0
71 0 0 0
156 0 0 0
57 0 0 0
41 0 0 0
61 0 0 0
62 0 0 0
63 0 0 0
186 0 0 0
176 0 0 0
177 0 0 0
187 0 0 0
178 0 0 0
181 0 0 0
191 0 0 0
182 0 0 0
192 0 0 0
183 0 0 0
72 0 0 0
56 0 0 0
73 0 0 0
76 0 0 0
78 0 0 0
68 0 0 0
86 0 0 0
66 0 0 0
90 0 0 0
96 0 0 0
97 0 0 0
98 0 0 0
206 0 0 0
208 0 0 0
210 0 0 0
216 0 0 0
218 0 0 0
220 0 0 0
77 0 0 0
101 0 0 0
79 0 0 0
103 0 0 0
219 0 0 0
87 0 0 0
111 0 0 0
89 0 0 0
104 0 0 0
115 0 0 0
121 0 0 0
122 0 0 0
202 0 0 0
123 0 0 0
242 0 0 0
201 0 0 0
231 0 0 0
233 0 0 0
203 0 0 0
207 0 0 0
241 0 0 0
209 0 0 0
243 0 0 0
245 0 0 0
217 0 0 0
105 0 0 0
1 0 0 0
102 0 0 0
3 0 0 0
5 0 0 0
146 0 0 0
113 0 0 0
11 0 0 0
13 0 0 0
114 0 0 0
15 0 0 0
21 0 0 0
127 0 0 0
23 0 0 0
226 0 0 0
131 0 0 0
235 0 0 0
133 0 0 0
135 0 0 0
232 0 0 0
244 0 0 0
234 0 0 0
143 0 0 0
145 0 0 0
175 0 0 0
6 0 0 0
8 0 0 0
10 0 0 0
16 0 0 0
18 0 0 0
20 0 0 0
128 0 0 0
129 0 0 0
130 0 0 0
136 0 0 0
137 0 0 0
140 0 0 0
112 0 0 0
148 0 0 0
150 0 0 0
149 0 0 0
159 0 0 0
44 0 0 0
185 0 0 0
42 0 0 0
227 0 0 0
43 0 0 0
46 0 0 0
88 0 0 0
50 0 0 0
55 0 0 0
153 0 0 0
154 0 0 0
164 0 0 0
155 0 0 0
172 0 0 0
161 0 0 0
138 0 0 0
162 0 0 0
165 0 0 0
32 0 0 0
171 0 0 0
34 0 0 0
174 0 0 0
31 0 0 0
69 0 0 0
239 0 0 0
70 0 0 0
59 0 0 0
60 0 0 0
74 0 0 0
75 0 0 0
64 0 0 0
179 0 0 0
65 0 0 0
118 0 0 0
194 0 0 0
189 0 0 0
190 0 0 0
193 0 0 0
184 0 0 0
222 0 0 0
163 0 0 0
195 0 0 0
54 0 0 0
198 0 0 0
33 0 0 0
199 0 0 0
82 0 0 0
84 0 0 0
92 0 0 0
94 0 0 0
99 0 0 0
100 0 0 0
212 0 0 0
214 0 0 0
223 0 0 0
224 0 0 0
107 0 0 0
81 0 0 0
83 0 0 0
109 0 0 0
188 0 0 0
91 0 0 0
117 0 0 0
85 0 0 0
93 0 0 0
95 0 0 0
124 0 0 0
125 0 0 0
237 0 0 0
204 0 0 0
230 0 0 0
205 0 0 0
211 0 0 0
247 0 0 0
213 0 0 0
249 0 0 0
215 0 0 0
221 0 0 0
197 0 0 0
225 0 0 0
106 0 0 0
7 0 0 0
141 0 0 0
108 0 0 0
110 0 0 0
116 0 0 0
17 0 0 0
119 0 0 0
19 0 0 0
120 0 0 0
24 0 0 0
25 0 0 0
229 0 0 0
228 0 0 0
29 0 0 0
173 0 0 0
9 0 0 0
200 0 0 0
147 0 0 0
236 0 0 0
238 0 0 0
240 0 0 0
246 0 0 0
248 0 0 0
250 0 0 0
139 0 0 0
