LAMMPS data file via write_data, version 22 Jul 2025, timestep = 11113, units = metal

250 atoms
1 atom types

-0.04789299657750529 15.873870996577521 xlo xhi
0 15.825978000000001 ylo yhi
0 15.825978000000001 zlo zhi

Masses

1 183.841

Atoms # atomic

2 1 1.6632053254631183 1.6136309762181382 1.5311920140835238 0 0 0
4 1 4.8560203281489285 1.62495199653995 1.5205193436877718 0 0 0
12 1 1.6617118469046266 4.77711052419026 1.5378050262436318 0 0 0
14 1 4.845207969092576 4.780368446738406 1.5401071641337294 0 0 0
126 1 1.6595315469755427 7.937263925645098 1.5229994405561915 0 0 0
132 1 4.845355980388529 7.93331803235575 1.522271996484021 0 0 0
46 1 1.629128430640426 11.065211011849021 1.5209760360117404 -1 0 0
134 1 4.863557054981497 11.079371656259328 1.4725515350594778 0 0 0
142 1 1.638722603000454 14.290278580404873 1.508804733320451 0 0 0
144 1 4.869228837011383 14.289700330712513 1.5117824890498281 0 0 0
27 1 1.611671620954723 1.6942186941273198 4.645617057150135 0 0 0
26 1 -0.0034570120856737404 0.08685938025808988 3.0480153108544297 0 0 0
28 1 3.2959091103885525 0.050210712214595936 3.0798085620419893 0 0 0
58 1 4.924069670999549 1.7013337061599878 4.636795042866034 0 0 0
159 1 6.442912604870913 0.035089973297196486 3.114724386751767 0 0 0
38 1 0.047042434273808977 3.2236641088337135 3.1030375443644314 0 0 0
37 1 1.6554435841709663 4.783372452441047 4.705092148654377 0 0 0
39 1 4.853824202718205 4.79091687432406 4.712722411543995 0 0 0
185 1 3.2575332464702633 3.20817495270788 3.1151298809444463 0 1 0
40 1 6.461152488788507 3.2271771269578227 3.1030497367491936 0 0 0
180 1 0.05555765041159061 6.350796704927395 3.113326216240588 0 0 0
47 1 3.251828372122814 6.357940541902677 3.119357806463767 0 0 0
48 1 6.43296954087562 6.366227425843902 3.1277123423447795 0 0 0
151 1 1.647121784689781 7.909893546639497 4.699620303120116 0 0 0
152 1 4.843156877876277 7.93792738977994 4.714470356188134 0 0 0
22 1 3.286085527748995 9.498807504678558 3.07129501937773 0 0 0
160 1 6.453358848935905 9.509074355406964 3.0996658979396194 0 0 0
157 1 1.419930279456785 10.61679880893046 4.542245607808848 0 0 0
166 1 0.14621197972422817 12.682278842101605 3.175233995223471 0 0 0
168 1 3.2646844219421514 12.680384106702471 2.8644909023170624 0 0 0
170 1 4.866125157213924 11.087756658734929 4.5877715573813935 0 0 0
45 1 6.442605759985506 12.707131249067737 3.1143173443283194 0 0 0
167 1 1.5786178246505846 14.662321944516274 4.677712112495724 0 0 0
169 1 4.798659379047697 14.242453500941483 4.8194998476050355 0 0 0
35 1 1.6306752905359623 1.571941130614639 7.888639671539264 0 0 0
51 1 -0.02898696550681888 0.15953849044230362 6.265007959675186 0 0 0
67 1 4.899414264122505 1.6354033250853572 7.896319308049625 0 0 0
52 1 3.3075191294614 0.38710938503280506 6.17918290694474 0 0 0
53 1 6.501945908964604 0.1334678048970282 6.199661632753278 0 0 0
56 1 0.0573755333815351 3.201465389947338 6.298442255487905 0 0 0
71 1 1.6530124966234347 4.762112721532791 7.877263490389314 0 0 0
57 1 3.259818942969839 3.2062711235950583 6.28576460144122 0 0 0
72 1 4.824036501722173 4.774439691491703 7.877847702425763 0 0 0
41 1 6.462552396036072 3.239995009834031 6.309237666270628 0 0 0
61 1 0.05615707923325184 6.348936302600657 6.296582613279581 0 0 0
62 1 3.247771043874676 6.357382551599073 6.28840008514696 0 0 0
187 1 4.8598031186151465 7.841968508356111 7.888605199205203 0 0 0
63 1 6.450353440333855 6.339074498894943 6.299628409965204 0 0 0
186 1 1.6437495863808889 7.928951637700866 7.865262758250298 0 0 0
176 1 0.0021453350063496946 9.480145400209297 6.393592779912581 0 0 0
177 1 3.2714008103803245 9.544893626024347 6.3199808766067065 0 0 0
178 1 6.413689255682444 9.558197397087259 6.270633515360451 0 0 0
191 1 1.6511850720737367 11.199755735445533 7.821056132228303 0 0 0
174 1 0.046054025792306004 12.677337224059308 6.206948287777252 1 0 0
182 1 2.716511671272647 12.52396498214556 5.3662000024149945 0 0 0
192 1 4.436021613277593 11.95288352958192 7.095843802924231 0 0 0
183 1 6.7299999634248415 12.72134202605143 6.258405246628323 0 0 0
232 1 2.9636685283692956 14.038316727788564 7.374738886916411 0 0 0
80 1 5.379604458500554 14.369326616715645 7.911858832804863 0 -1 0
78 1 3.2361169455274092 15.81425173421393 9.40700883327464 0 -1 0
68 1 6.518382842688645 0.1394423076441827 9.56905360829967 0 0 0
86 1 0.058200720844424646 3.196011328109914 9.476281789717437 0 0 0
66 1 3.2594416450854515 3.1771087446158246 9.446247159139023 0 0 0
90 1 6.473808740393084 3.244383016802636 9.452277732079354 0 0 0
96 1 0.06174584230982548 6.352951957369043 9.464351433076422 0 0 0
97 1 3.2393387804350517 6.343307694983351 9.46250506708801 0 0 0
98 1 6.482358530963386 6.316675199815226 9.463733164305646 0 0 0
206 1 0.04019421443209986 9.515177968285975 9.489596052452137 0 0 0
208 1 3.0623417032993263 9.501994335853071 9.485208864029946 0 0 0
210 1 5.3615018492339335 10.330549996114797 8.628637656837963 0 0 0
175 1 6.954127745187225 9.052584310734026 9.949621017509783 0 0 0
216 1 0.0013793240912296117 12.436000693283722 9.623065598311635 0 0 0
218 1 3.2818652626079654 12.59986274972304 9.55059437854201 0 0 0
220 1 6.473411620513375 12.61627789334228 9.5029422280481 0 0 0
196 1 0.7185440866907142 14.340553624148614 8.129282995007852 0 0 0
77 1 1.71567170162689 1.6427942387046182 11.083055820887415 0 0 0
101 1 0.06195719067904958 0.02579012055970635 12.616539596662426 0 0 0
79 1 4.8500987541716345 1.6271731879382465 11.04101469406698 0 0 0
103 1 3.2580034643399056 0.00991780748185652 12.601561276783787 0 0 0
219 1 6.44009453869418 0.030722780733214862 12.628216138117859 0 0 0
87 1 1.6617267635777342 4.769252528526053 11.043365756549134 0 0 0
111 1 0.07126703117008733 3.1873051043190794 12.626769790343637 0 0 0
89 1 4.852941412715833 4.7796467682659065 11.029172317045978 0 0 0
104 1 3.26785720589096 3.2028571812353923 12.629887644901695 0 0 0
115 1 6.435892628286318 3.1944092121825713 12.623124728438253 0 0 0
121 1 0.06252572993847834 6.343640162383282 12.634374996724045 0 0 0
201 1 1.622923540474283 7.916025293304244 11.077522253561652 0 0 0
122 1 3.249861484501868 6.3540348640692335 12.622389214757787 0 0 0
123 1 6.409850542134799 6.357656537872736 12.622196431531316 0 0 0
231 1 0.0699956219691499 9.522586169292449 12.66293360538203 0 0 0
202 1 4.784260402907554 7.960225715250369 11.015762717235669 0 0 0
233 1 3.232378696132756 9.51506469742785 12.671745375954602 0 0 0
203 1 6.464576536285535 9.480377990112393 12.648749443985357 0 0 0
243 1 1.6666599672878804 11.068577292305237 11.123390031623225 0 0 0
241 1 0.07459507803947833 12.66283132109328 12.663867614316398 0 0 0
207 1 3.2371805374615996 12.673966870193443 12.658026914399118 0 0 0
209 1 4.8581856226238065 11.06538542038827 11.151717695742995 0 0 0
245 1 6.440089500736314 12.691970208138017 12.639650528735523 0 0 0
217 1 1.6415366751434786 14.251296482230288 11.011710530154899 0 0 0
105 1 4.849921460923341 14.262293806799121 11.022213732636553 0 -1 0
102 1 1.666287591998546 1.6065493548535932 14.201429704953219 0 0 0
1 1 0.061718391995376 0.023230772648459082 15.768218615711836 0 0 -1
3 1 3.2551676157159264 0.018535667955241364 15.771678952109475 0 0 -1
5 1 4.843887802075818 1.605448108124151 14.197425537841708 0 0 -1
146 1 6.442549390463226 0.030518644955924983 15.77643539858903 0 1 -1
11 1 0.07636251565599357 3.18672816146072 15.785518220009648 0 0 -1
113 1 1.6648455685499273 4.766844675937879 14.205745738923586 0 0 0
114 1 4.843663976423766 4.774674290022718 14.205795595931281 0 0 0
13 1 3.2552866354277654 3.1921162778553662 15.782916384465059 0 0 -1
15 1 6.4351483195427654 3.1925442752710307 15.782923401669212 0 0 -1
21 1 0.06970907644365945 6.3518583947713845 15.787011205331458 0 0 -1
226 1 1.65665108403405 7.904638948836186 14.209497500719152 0 0 0
127 1 3.2540611926406298 6.357138925133206 15.783673543842541 0 0 -1
23 1 6.434738709347358 6.352551254100917 15.787164233876705 0 0 -1
131 1 0.07008005100499488 9.52600157725434 15.74159594115742 0 0 -1
133 1 3.2346028397372133 9.531203366863316 15.751881110102625 0 0 -1
235 1 4.837749631623516 7.938500693585931 14.20211869112143 0 0 0
158 1 6.4466788361347875 9.503695448251962 15.775897822924126 0 0 -1
49 1 0.08523389734775713 12.671690047690218 15.77690763503716 0 0 -1
234 1 4.8782923933640285 11.094588673337949 14.204456029438722 0 0 0
143 1 3.2286978208240007 12.665651608288664 15.740530635989451 0 0 -1
145 1 6.43658628448129 12.689900910827289 15.782671442884368 0 0 -1
242 1 1.6553765859657141 14.290211491719443 14.188927679794931 0 0 0
244 1 4.838398750321181 14.262047548839922 14.195066313210113 0 0 0
6 1 8.030099179094695 1.6127818390605504 1.542093943524329 0 0 0
8 1 11.209786760079561 1.609384093643971 1.5441504051515607 0 0 0
10 1 14.382012511468973 1.6191638106952682 1.523610503707593 0 0 0
16 1 8.030769688552214 4.781821213811599 1.5417401913786333 0 0 0
18 1 11.213999804866955 4.771338367097893 1.5622365304144672 0 0 0
70 1 14.09005555778713 14.278968987765191 7.879749883848791 0 -1 0
20 1 14.389495540128076 4.773354925917233 1.5376397513746385 0 0 0
130 1 14.33385489104893 7.875338450385154 1.4692929255121452 0 0 0
128 1 8.031315684663848 7.931772486161432 1.5444680960083907 0 0 0
129 1 11.204358730267554 7.930367343159586 1.5490714827206318 0 0 0
136 1 8.033626983731248 11.105485303529244 1.5368841367784343 0 0 0
137 1 11.213727250512205 11.105588650563723 1.5457187659311311 0 0 0
140 1 14.393424086717186 11.121324848852332 1.5205018759111597 0 0 0
112 1 8.037750277177434 14.274412954499144 1.535465360090965 0 0 0
148 1 11.217749521148445 14.2657980113172 1.546316140335693 0 0 0
150 1 14.407420675541307 14.249802597831614 1.5392840934362875 0 0 0
54 1 8.066845600207458 1.6703415877549952 4.691940258768983 0 0 0
32 1 9.631230485523073 0.04350564867014047 3.114481063507995 0 0 0
224 1 12.791846311787873 0.03180150322000926 3.1170917511950944 0 0 0
44 1 11.192972773192727 1.6390574812035383 4.707860864959035 0 0 0
36 1 14.359394367727576 1.6462547688492146 4.681972849166216 -1 0 0
42 1 9.627976875176898 3.210847195060398 3.1255799819782095 0 0 0
64 1 8.029375721390116 4.78846958501111 4.689705094944952 0 0 0
227 1 12.793757694332841 3.2037303477629764 3.1265102938787193 0 0 0
43 1 11.203013712316421 4.780264820392342 4.722219701052895 0 0 0
65 1 14.389086003458697 4.782949808024743 4.7114953243921915 0 0 0
88 1 9.618948307323652 6.360032669059182 3.13759171285161 0 0 0
50 1 12.799595674477358 6.357440845355553 3.133429830756279 0 0 0
55 1 9.62526384027346 9.510247286799855 3.1197034390041525 0 0 0
153 1 8.022163495373976 7.9325049661776985 4.716125055885761 0 0 0
154 1 11.202045148062377 7.930324430694598 4.720055572761714 0 0 0
164 1 12.787449900170873 9.508497758227461 3.1166065405298857 0 0 0
155 1 14.395715666183063 7.940731971050857 4.709763057118199 0 0 0
156 1 15.829240362177094 9.392904096669572 2.9375809868280767 -1 0 0
172 1 9.626155028572262 12.690697950459194 3.125502252444056 0 0 0
161 1 8.061263932102676 11.078820297429303 4.672428285888941 0 0 0
138 1 12.820673657079666 12.685444864369364 3.125141325944347 0 0 0
162 1 11.207903737067678 11.091979172033147 4.6994086436928875 0 0 0
165 1 14.381706779496305 11.074365819795325 4.6882709184125835 0 0 0
171 1 8.066271661684597 14.32352400344257 4.669671445300716 0 0 0
30 1 11.213912818007836 14.275340150204332 4.705550298298966 0 0 0
197 1 14.381590057882642 14.290676882847542 4.714845117856419 0 -1 0
34 1 9.628315617067825 0.05135698615617603 6.287401439908765 0 0 0
31 1 8.037894472548487 1.6098307921194763 7.880598090410791 0 0 0
69 1 11.191095907590597 1.6326093358791753 7.88296056788523 0 0 0
33 1 12.748713014924135 0.07016566935006832 6.266314282801738 0 0 0
239 1 14.35117612036087 1.620037129616768 7.89731709240138 0 0 0
59 1 9.601764903412457 3.231815280848575 6.3197438705108215 0 0 0
60 1 12.795356981067323 3.199811538702887 6.292556305629173 0 0 0
74 1 11.248380790553695 4.76611170861793 7.866878293434003 0 0 0
75 1 14.394790082766265 4.772068449979392 7.883756154982355 0 0 0
181 1 9.606189752084191 6.334077684613706 6.302160473060596 0 0 0
73 1 12.799034041905404 6.358274918780135 6.2937984540361 0 0 0
118 1 9.616299361224193 9.517112992611008 6.294203651939644 0 0 0
179 1 8.02399826681541 7.94288030923414 7.821101611486368 0 0 0
189 1 11.200467938392094 7.9201944051274795 7.877271880509689 0 0 0
194 1 12.788666793766547 9.510700353835402 6.299419254509279 0 0 0
190 1 14.367762419070877 7.919120283730525 7.90321147789971 0 0 0
184 1 9.632109387235548 12.68426702939561 6.290788780675189 0 0 0
222 1 11.204749270326817 11.091363220523737 7.88484792658464 0 0 0
163 1 12.769291758394962 12.656149086372578 6.260055875937174 0 0 0
195 1 14.371085328038694 11.124855001518325 7.880266673176402 0 0 0
198 1 8.112530941128687 14.303139816052871 7.907116619929707 0 0 0
199 1 11.205130057375515 14.273852306231888 7.882728040118587 0 0 0
82 1 9.637042904226654 0.05279267394681707 9.482111743523474 0 0 0
84 1 12.752976482138171 0.0677286612869937 9.506785445733204 0 0 0
76 1 15.869562067577645 0.3143450894102763 9.679229032808406 -1 0 0
92 1 9.603528190860887 3.2234896586516824 9.448211405846456 0 0 0
94 1 12.787290625104816 3.2042995960723517 9.472156092131636 0 0 0
99 1 9.605866140420408 6.284873149167556 9.358003446259458 0 0 0
100 1 12.793789720631544 6.3464494087422 9.469426323296961 0 0 0
119 1 9.648714398044612 9.46868747787223 9.488307662889783 0 0 0
214 1 12.795187364320075 9.504574279758614 9.473420031431983 0 0 0
223 1 9.630346075295025 12.673794870928026 9.471929626234633 0 0 0
193 1 8.040276314837376 11.062414053461318 7.918563343295028 0 0 0
213 1 12.764660196764115 12.646004280855141 9.502463431233625 0 0 0
107 1 9.621049417435735 0.024853413070633018 12.633527615982217 0 0 0
81 1 8.063944701340887 1.6629264019718026 11.074185306993698 0 0 0
83 1 11.18779847746776 1.6360424376566984 11.063270461651635 0 0 0
109 1 12.801090267271558 0.01573440320300116 12.634550027324854 0 0 0
188 1 14.289085067541352 1.699948929594308 11.146598920118493 0 0 0
117 1 9.633341566370076 3.19085296390682 12.658493371604255 0 0 0
91 1 8.056222262915075 4.7744734809457405 11.102009426155485 0 0 0
85 1 12.77048388908927 3.2243123951741874 12.665883316846251 0 0 0
93 1 11.19743785970602 4.776969584453196 11.04036693369781 0 0 0
95 1 14.39013936827449 4.778693798500769 11.052710819969356 0 0 0
25 1 8.374531286793319 7.562636125143946 11.299884129270048 0 0 -1
124 1 9.7981633781897 6.187254717626298 12.838599383371218 0 0 0
125 1 12.813595653693719 6.332736942757602 12.650457614605104 0 0 0
204 1 11.213318350002139 7.885815376654325 11.063472626139506 0 0 0
205 1 14.387894016228875 7.9241627490876665 11.065912484189363 0 0 0
237 1 9.624203518924508 9.500166024928921 12.644551344191209 0 0 0
230 1 12.783089032031986 9.487894199477674 12.654473487877416 0 0 0
211 1 8.0623617764587 11.137329327520153 11.094029299195181 0 0 0
247 1 9.63156737353425 12.692592239630642 12.641920497012968 0 0 0
212 1 11.19999960391455 11.077527941398591 11.068012279139888 0 0 0
240 1 12.806246814799906 12.686685369935173 12.632996451151477 0 0 0
215 1 14.336766619029422 11.034086575029534 11.132575234811496 0 0 0
221 1 8.033835499264752 14.27795444446651 11.046109885894452 0 0 0
249 1 11.213062394695308 14.267102272720683 11.051669376080572 0 0 0
225 1 14.413183145461646 14.257257413105526 11.011183439816643 0 0 0
106 1 8.030135975447983 1.6074006681921775 14.212634327631985 0 0 0
7 1 9.623760230445662 0.021921089377858822 15.790261353558364 0 0 -1
108 1 11.217409831329249 1.5890295921375261 14.221473716002533 0 0 0
9 1 12.810115233244282 0.01073875894384904 15.791596336271736 0 0 -1
110 1 14.395296428904036 1.6048983361987934 14.209840459529874 0 0 0
116 1 8.016890302595163 4.761957181321112 14.225659498892554 0 0 0
17 1 9.614599673624722 3.180340690942386 15.804099806287837 0 0 -1
228 1 11.272018793582319 4.687075573107908 14.316819181909283 0 0 0
120 1 14.413366988529527 4.760089510132332 14.218350291626196 0 0 0
24 1 9.626865115083376 6.340406742354265 15.812323802628239 0 0 -1
229 1 12.79082460871929 6.332228514763312 15.778557020898452 0 0 0
135 1 8.049303745948848 7.905711407740111 14.224974417120341 0 0 -1
29 1 9.623528383023869 9.516036145917303 15.796570721875794 0 0 0
173 1 11.22666905400326 7.936471678480666 14.240978290300347 0 0 0
139 1 12.805824686046735 9.52170484866693 15.798164153003778 0 0 -1
200 1 14.400265546985553 7.931786454320342 14.207442938765674 0 0 0
147 1 9.623615528665106 12.686384039004583 15.792381076363762 0 0 -1
236 1 8.038718355899022 11.09722222583631 14.216102149863795 0 0 0
149 1 12.808133254789919 12.689585554801598 15.788532188142927 0 0 -1
238 1 11.20983688480601 11.101164094096978 14.21729861155165 0 0 0
141 1 14.365041588197426 11.10079885257174 14.216796051704751 -1 0 -1
246 1 8.030882288832098 14.268882268646875 14.208328478221416 0 0 0
248 1 11.216071914033746 14.264984335019536 14.213759308014916 0 0 0
250 1 14.407422199486351 14.25588026929334 14.200232914814736 0 0 0
19 1 12.82454757365247 3.1602487730386333 15.819431774660435 0 0 -1

Velocities

2 0 0 0
4 0 0 0
12 0 0 0
14 0 0 0
126 0 0 0
132 0 0 0
46 0 0 0
134 0 0 0
142 0 0 0
144 0 0 0
27 0 0 0
26 0 0 0
28 0 0 0
58 0 0 0
159 0 0 0
38 0 0 0
37 0 0 0
39 0 0 0
185 0 0 0
40 0 0 0
180 0 0 0
47 0 0 0
48 0 0 0
151 0 0 0
152 0 0 0
22 0 0 0
160 0 0 0
157 0 0 0
166 0 0 0
168 0 0 0
170 0 0 0
45 0 0 0
167 0 0 0
169 0 0 0
35 0 0 0
51 0 0 0
67 0 0 0
52 0 0 0
53 0 0 0
56 0 0 0
71 0 0 0
57 0 0 0
72 0 0 0
41 0 0 0
61 0 0 0
62 0 0 0
187 0 0 0
63 0 0 0
186 0 0 0
176 0 0 0
177 0 0 0
178 0 0 0
191 0 0 0
174 0 0 0
182 0 0 0
192 0 0 0
183 0 0 0
232 0 0 0
80 0 0 0
78 0 0 0
68 0 0 0
86 0 0 0
66 0 0 0
90 0 0 0
96 0 0 0
97 0 0 0
98 0 0 0
206 0 0 0
208 0 0 0
210 0 0 0
175 0 0 0
216 0 0 0
218 0 0 0
220 0 0 0
196 0 0 0
77 0 0 0
101 0 0 0
79 0 0 0
103 0 0 0
219 0 0 0
87 0 0 0
111 0 0 0
89 0 0 0
104 0 0 0
115 0 0 0
121 0 0 0
201 0 0 0
122 0 0 0
123 0 0 0
231 0 0 0
202 0 0 0
233 0 0 0
203 0 0 0
243 0 0 0
241 0 0 0
207 0 0 0
209 0 0 0
245 0 0 0
217 0 0 0
105 0 0 0
102 0 0 0
1 0 0 0
3 0 0 0
5 0 0 0
146 0 0 0
11 0 0 0
113 0 0 0
114 0 0 0
13 0 0 0
15 0 0 0
21 0 0 0
226 0 0 0
127 0 0 0
23 0 0 0
131 0 0 0
133 0 0 0
235 0 0 0
158 0 0 0
49 0 0 0
234 0 0 0
143 0 0 0
145 0 0 0
242 0 0 0
244 0 0 0
6 0 0 0
8 0 0 0
10 0 0 0
16 0 0 0
18 0 0 0
70 0 0 0
20 0 0 0
130 0 0 0
128 0 0 0
129 0 0 0
136 0 0 0
137 0 0 0
140 0 0 0
112 0 0 0
148 0 0 0
150 0 0 0
54 0 0 0
32 0 0 0
224 0 0 0
44 0 0 0
36 0 0 0
42 0 0 0
64 0 0 0
227 0 0 0
43 0 0 0
65 0 0 0
88 0 0 0
50 0 0 0
55 0 0 0
153 0 0 0
154 0 0 0
164 0 0 0
155 0 0 0
156 0 0 0
172 0 0 0
161 0 0 0
138 0 0 0
162 0 0 0
165 0 0 0
171 0 0 0
30 0 0 0
197 0 0 0
34 0 0 0
31 0 0 0
69 0 0 0
33 0 0 0
239 0 0 0
59 0 0 0
60 0 0 0
74 0 0 0
75 0 0 0
181 0 0 0
73 0 0 0
118 0 0 0
179 0 0 0
189 0 0 0
194 0 0 0
190 0 0 0
184 0 0 0
222 0 0 0
163 0 0 0
195 0 0 0
198 0 0 0
199 0 0 0
82 0 0 0
84 0 0 0
76 0 0 0
92 0 0 0
94 0 0 0
99 0 0 0
100 0 0 0
119 0 0 0
214 0 0 0
223 0 0 0
193 0 0 0
213 0 0 0
107 0 0 0
81 0 0 0
83 0 0 0
109 0 0 0
188 0 0 0
117 0 0 0
91 0 0 0
85 0 0 0
93 0 0 0
95 0 0 0
25 0 0 0
124 0 0 0
125 0 0 0
204 0 0 0
205 0 0 0
237 0 0 0
230 0 0 0
211 0 0 0
247 0 0 0
212 0 0 0
240 0 0 0
215 0 0 0
221 0 0 0
249 0 0 0
225 0 0 0
106 0 0 0
7 0 0 0
108 0 0 0
9 0 0 0
110 0 0 0
116 0 0 0
17 0 0 0
228 0 0 0
120 0 0 0
24 0 0 0
229 0 0 0
135 0 0 0
29 0 0 0
173 0 0 0
139 0 0 0
200 0 0 0
147 0 0 0
236 0 0 0
149 0 0 0
238 0 0 0
141 0 0 0
246 0 0 0
248 0 0 0
250 0 0 0
19 0 0 0
