LAMMPS data file via write_data, version 22 Jul 2025, timestep = 5420, units = metal

250 atoms
1 atom types

-0.021262616021443165 15.847240616021432 xlo xhi
0 15.825978000000001 ylo yhi
0 15.825978000000001 zlo zhi

Masses

1 183.841

Atoms # atomic

2 1 1.6759443542076966 1.610746239915081 1.460325369255211 0 0 0
4 1 4.850985784233708 1.6109741775096376 1.509352869914086 0 0 0
12 1 1.6683008397300791 4.767832921943918 1.5023800116838177 0 0 0
14 1 4.851496303926634 4.767563968711609 1.5063540666371098 0 0 0
126 1 1.6638980759885398 7.925450376122162 1.4995079563909146 0 0 0
158 1 4.842274151833065 7.919894003282879 1.5055337339679216 0 0 0
132 1 1.6678617766038248 11.087439860675396 1.4992370994412751 0 0 0
196 1 1.6667879668108772 14.261746102549626 7.832755717255521 0 0 0
134 1 4.836550722728507 11.091018376178626 1.4983154621319468 0 0 0
142 1 1.697883058779266 14.286032037356565 1.5262366329699115 0 0 0
144 1 4.840699806325025 14.265974275028114 1.504941420716812 0 0 0
27 1 1.9253063844309084 1.8662402566793075 4.920012670248363 0 0 0
26 1 0.4960557237070999 0.4367828251316113 3.506048033676232 0 0 0
28 1 3.274984827957447 0.04936073561510822 3.113554033034883 0 0 0
58 1 4.873806771947247 1.632714661007902 4.685255062868441 0 0 0
30 1 6.425801611068355 0.02652141742067084 3.0854191506563335 0 0 0
37 1 1.6819585889394078 4.7820031306488096 4.684559335712812 0 0 0
36 1 0.10372391650283506 3.2009491678716318 3.1099626420908035 0 0 0
38 1 3.2756118045177325 3.1992568531285714 3.0697744555210784 0 0 0
39 1 4.827490447372754 4.772433013847531 4.658994670111439 0 0 0
40 1 6.45230626001891 3.206809629269779 3.1015662558892387 0 0 0
180 1 0.07898166539250312 6.346628614104754 3.0852080292504436 0 0 0
47 1 3.2580366168461246 6.351299501996686 3.0816307590966128 0 0 0
48 1 6.443248242173221 6.3251882885864585 3.099088561666462 0 0 0
151 1 1.6658322388967737 7.928959992204912 4.665278849421303 0 0 0
156 1 0.07342787744261668 9.49865447434003 3.080311686332979 0 0 0
152 1 4.847270999749618 7.92164744473917 4.660288322457002 0 0 0
22 1 3.2520208720142048 9.507943100150454 3.0813990848152586 0 0 0
160 1 6.42073831905912 9.504283850250388 3.079151182231983 0 0 0
166 1 0.0680771078914107 12.616230465140726 3.0747066189371273 0 0 0
157 1 1.6657948127529256 11.082181944444256 4.666911557793068 0 0 0
168 1 3.255498573908421 12.675424254432345 3.0835525759037496 0 0 0
170 1 4.837842629232341 11.092028258752025 4.662018495862309 0 0 0
45 1 6.421205923508656 12.676411710852944 3.080581848713721 0 0 0
167 1 1.6749411692551797 14.216505720663623 4.6760260199052475 0 0 0
169 1 4.843171794817619 14.26435374444933 4.668022258950791 0 0 0
35 1 1.6843600037593247 1.619533793840507 7.847392111674078 0 0 0
51 1 0.10319375133278731 0.044588060026785836 6.266773928198931 0 0 0
67 1 4.857294399209568 1.60229845747584 7.83072673341937 0 0 0
52 1 3.26870714191461 0.011060697415170602 6.26107425382976 0 0 0
53 1 6.4306683354684555 0.023037869731404214 6.249407773387363 0 0 0
71 1 1.6613643194734726 4.771076161872615 7.835356619593461 0 0 0
56 1 0.061299435712195656 3.195207411183232 6.261939834119469 0 0 0
57 1 3.386134052199637 3.30804994619746 6.37885197515154 0 0 0
72 1 4.886831226565481 4.8023957272546545 7.854008772016902 0 0 0
41 1 6.473502383569559 3.2150105941859732 6.23114332702994 0 0 0
80 1 4.840862845821752 14.258422264467253 7.831307762555315 0 -1 0
61 1 0.07570875037731292 6.350449123937102 6.249425810228241 0 0 0
62 1 3.263822599512441 6.364017321806959 6.253887470458251 0 0 0
63 1 6.444842867592604 6.322666184018287 6.210761275571931 0 0 0
186 1 1.6608578297236185 7.931239096472592 7.828536289657088 0 0 0
176 1 0.07379807457561625 9.50884069872538 6.246569677662813 0 0 0
177 1 3.251382706976784 9.51061184615582 6.244735884395203 0 0 0
187 1 4.842716414781274 7.930117053799243 7.818689513643755 0 0 0
178 1 6.420493423594647 9.505458126697448 6.239059893395961 0 0 0
181 1 0.07652148116659825 12.674102194634775 6.251588588841863 0 0 0
191 1 1.660957524333515 11.093293557029948 7.828631437261438 0 0 0
182 1 3.255951030667637 12.670545192055627 6.251701731948978 0 0 0
192 1 4.834629930600449 11.092688705178755 7.825554211876858 0 0 0
183 1 6.423071041092534 12.676119693749785 6.244471015353802 0 0 0
76 1 0.07912610252852814 0.019830417220504427 9.412046054036773 0 0 0
78 1 3.255086007565028 0.01860938681286118 9.414453309859402 0 0 0
68 1 6.425653184798124 0.014971893689517478 9.409762586650341 0 0 0
86 1 0.07585616530039191 3.1839272203863804 9.415748084090792 0 0 0
66 1 3.2607853721198596 3.1903153826719715 9.427774863897735 0 0 0
90 1 6.424333404646992 3.1700623412780513 9.404827993626565 0 0 0
96 1 0.07238030584562735 6.345226605333933 9.410760940547583 0 0 0
97 1 3.2400202665968303 6.3431887496302055 9.407837643348076 0 0 0
98 1 6.3878987337351445 6.311110523900858 9.370471658298197 0 0 0
206 1 0.072423134145523 9.509886536632335 9.408663971784751 0 0 0
208 1 3.24468597432859 9.509860972121366 9.406395436936634 0 0 0
210 1 6.412924652506975 9.509285465189068 9.397588650830563 0 0 0
216 1 0.07417515956935317 12.676026263958848 9.409495090756453 0 0 0
218 1 3.24791060979359 12.676350472552661 9.410728465096923 0 0 0
220 1 6.418024034596723 12.676644622094418 9.40504806448788 0 0 0
77 1 1.6646878063961266 1.600246257997276 10.996060573762872 0 0 0
101 1 0.07401935015391789 0.014552270512866112 12.565997601783172 0 0 0
79 1 4.838288334433523 1.5960645378449239 10.996892625295303 0 0 0
103 1 3.2506364312675196 0.015042107685400945 12.576722521049179 0 0 0
219 1 6.421386040353817 0.013885916846453445 12.577041822592395 0 0 0
87 1 1.6599082494979052 4.763746887150815 10.997658607982347 0 0 0
111 1 0.07412146731061159 3.1814422881409574 12.5764923326608 0 0 0
89 1 4.836438039576447 4.762012137886766 11.002044318144325 0 0 0
104 1 3.2501537759347507 3.1810193748916173 12.579532726030367 0 0 0
115 1 6.420606505242567 3.174372488921435 12.578340320919914 0 0 0
121 1 0.07256652295860176 6.343286890823755 12.577081344000824 0 0 0
122 1 3.2433398782966574 6.342645070874121 12.578356435934696 0 0 0
123 1 6.411848962449516 6.3351036194140535 12.57850198052701 0 0 0
231 1 0.08364851187000696 9.505759378847387 12.57249202018905 0 0 0
201 1 1.6579351083849716 7.925706494574266 10.991658773754388 0 0 0
242 1 1.6681996117853615 14.259197512750326 14.155042057853846 0 0 0
202 1 4.813795088333529 7.917447064791082 10.982514799011478 0 0 0
233 1 3.244192877475429 9.507160471348927 12.574033249109146 0 0 0
203 1 6.399112261447284 9.487394429657037 12.554949277443967 0 0 0
207 1 1.6609921474201406 11.092610201748895 10.99131913474944 0 0 0
244 1 4.836602419965882 14.258014220829526 14.159766033907975 0 0 0
209 1 4.828581706474361 11.090613756373095 10.988339244561939 0 0 0
243 1 3.2495234346341086 12.67507936247755 12.575154714290232 0 0 0
245 1 6.416307553135074 12.672126420348798 12.57145608289083 0 0 0
217 1 1.6630890228919248 14.259298427236706 10.99165424485528 0 0 0
105 1 4.834934663543591 14.257903254550236 10.993445766884005 0 -1 0
1 1 0.06858764993687058 0.009441736517378348 15.683739455652395 0 0 -1
102 1 1.6661152085986148 1.601798993960673 14.150565976498205 0 0 0
3 1 3.2569057675972077 0.019816324478681435 15.744119226509218 0 0 -1
5 1 4.837626007924325 1.5973796366490907 14.16235826582844 0 0 -1
146 1 6.42296114100244 0.017378422726327697 15.744896886666455 0 1 -1
113 1 1.6611139128048489 4.76353601182883 14.161138360037317 0 0 0
11 1 0.07700900589409403 3.1861290269865816 15.742007708272716 0 0 -1
13 1 3.257497550032713 3.1876698233723215 15.739012992771768 0 0 -1
114 1 4.835465297655922 4.761089649816121 14.16296985967901 0 0 0
15 1 6.423761163692408 3.179523476672183 15.748515630434788 0 0 -1
21 1 0.0741295676702817 6.343509937463122 15.74344472431914 0 0 -1
127 1 3.249674011703542 6.344355802498725 15.74488084673311 0 0 -1
23 1 6.417964723892429 6.34030735934482 15.749330724794774 0 0 -1
226 1 1.660970153614592 7.925339957808584 14.160293186546879 0 0 0
131 1 0.079027288766356 9.503518832046954 15.742470793997589 0 0 -1
235 1 4.828734908296298 7.922232325226644 14.159541224105528 0 0 0
133 1 3.2511308689289207 9.506691706696502 15.743640802286972 0 0 -1
135 1 6.416840200311246 9.502525962400037 15.74154202141261 0 0 -1
232 1 1.672131407399658 11.093406618227274 14.160924449311727 0 0 0
234 1 4.832723544878962 11.087396757047461 14.155148084077625 0 0 0
143 1 3.257780262748876 12.679135619153984 15.746014621809739 0 0 -1
145 1 6.418128014104237 12.66986554572469 15.737097551027912 0 0 -1
241 1 0.07956513870084021 12.675367197261785 12.570343782376588 0 0 0
49 1 0.12468899847392394 12.70084760202085 15.767406127492295 0 0 -1
175 1 7.883946115833175 7.7992094282728335 10.865387536114493 0 0 0
6 1 8.008449045915363 1.610011037892846 1.5095193725624017 0 0 0
8 1 11.168091686932197 1.6120125987392446 1.5067503155517328 0 0 0
10 1 14.378874465194187 1.6343188493560805 1.5239821031278071 0 0 0
16 1 8.010263020443428 4.761660882910117 1.4808659686782442 0 0 0
18 1 11.171286450911827 4.762700453327971 1.5083600924186407 0 0 0
20 1 14.358839137400448 4.766024227489401 1.5048510251609715 0 0 0
130 1 14.350873094197489 7.917572475491641 1.4961331775600317 0 0 0
128 1 8.002234841719373 7.908445632876866 1.5152028438449157 0 0 0
129 1 11.17107665533909 7.911002920874785 1.5079423585697724 0 0 0
136 1 8.002101699590915 11.0874697481042 1.500139187448381 0 0 0
137 1 11.185642888009262 11.094397129592862 1.5570308948499278 0 0 0
140 1 14.331408624759838 11.041842953622934 1.4754942380815426 0 0 0
112 1 8.000159074503891 14.256964970790108 1.4960571245590772 0 0 0
148 1 11.130592309093874 14.234948374344432 1.4738627738105 0 0 0
150 1 14.954971309736935 14.860010094808535 2.100277695250329 0 0 0
149 1 13.566362605288067 13.474184507855288 0.7124125687535854 0 0 0
159 1 8.01489672473088 1.5828678402089618 4.664239690670926 0 0 0
44 1 11.160799890462412 1.6113667509440088 4.665690283264586 0 0 0
197 1 12.705032339916595 0.008612382646827163 3.0730940758105088 0 0 0
185 1 14.30848112485553 1.6080277382385826 4.67232633303274 0 1 0
42 1 9.575407569502493 3.203036049706184 3.10081019501124 0 0 0
227 1 12.761570540083259 3.1852930284571452 3.0821601455058842 0 0 0
43 1 11.201655214012877 4.762628785432517 4.6615280675873265 0 0 0
46 1 14.359274421433824 4.766993663231696 4.666871529109247 -1 0 0
88 1 9.575779420125311 6.320438212084498 3.101114416822547 0 0 0
50 1 12.76377359698584 6.343087108956596 3.0806433795224932 0 0 0
154 1 11.171733174591568 7.913223437634164 4.662142323441501 0 0 0
55 1 9.591246784717018 9.498287560258381 3.0898793536978113 0 0 0
153 1 8.008233332153432 7.941855152665474 4.658734037150977 0 0 0
164 1 12.766045789044158 9.500462579242006 3.0870932255476733 0 0 0
155 1 14.354106896066304 7.9239477715939355 4.6640778889731545 0 0 0
172 1 9.58931229410429 12.67423948330942 3.0850112963635103 0 0 0
161 1 8.007203370615095 11.093048280137904 4.6621080626430045 0 0 0
138 1 12.790696108027955 12.697619108841629 3.132109568410284 0 0 0
162 1 11.1810329863898 11.089707467996892 4.672561038336363 0 0 0
165 1 14.355367053174804 11.085975507616334 4.669176045888066 0 0 0
32 1 9.585284942406668 0.01976475301758161 3.0790585995539925 0 0 0
171 1 8.008123303086409 14.257618479435026 4.6638321808646355 0 0 0
34 1 11.175115479532218 14.259567825334905 4.66885116640266 0 -1 0
174 1 14.379588578391013 14.282584580425512 4.699375842757361 0 0 0
31 1 8.016001094535396 1.6059471132458172 7.818998148677724 0 0 0
69 1 11.17596199228811 1.6039264256805457 7.820603866720218 0 0 0
239 1 14.356386268390661 1.60148374692551 7.832433483858481 0 0 0
59 1 9.579681227154657 3.201369523874849 6.225636010130132 0 0 0
60 1 12.757354857022607 3.185196999818668 6.251137813461069 0 0 0
74 1 11.173830135899651 4.760726458383713 7.8154863327758575 0 0 0
75 1 14.351706080493424 4.7661065248690715 7.8307087903861365 0 0 0
64 1 9.57741107222287 6.319528336238103 6.217003864431906 0 0 0
65 1 12.76387950341984 6.3443764027823 6.243874895982228 0 0 0
189 1 11.172543746841077 7.913478169406923 7.8114992420188925 0 0 0
179 1 8.000243951942528 7.905984459621991 7.793585854640609 0 0 0
118 1 9.593067990359897 9.49998905923455 6.240555863262395 0 0 0
194 1 12.765876882485461 9.505255721605742 6.244850010052568 0 0 0
190 1 14.353137399502296 7.926697401578303 7.826085490221138 0 0 0
193 1 8.004529640550107 11.08796628335169 7.819307132906865 0 0 0
184 1 9.594318790050751 12.673800956370645 6.2462729128341525 0 0 0
222 1 11.17648734172746 11.085026657129177 7.824481012020695 0 0 0
163 1 12.770619492444366 12.677074379161466 6.2536058991295596 0 0 0
195 1 14.354047232579546 11.091228764048362 7.828192005981292 0 0 0
54 1 9.59629968260398 0.01979380656710135 6.246640037921272 0 0 0
198 1 8.01004383336753 14.258968542355301 7.825508835922461 0 0 0
33 1 12.765237164147853 0.01809410481231613 6.249909211641291 0 0 0
199 1 11.181300516011648 14.25786041598954 7.827918987610333 0 0 0
70 1 14.360286323353197 14.263229860530462 7.831502239460336 0 -1 0
73 1 8.022272164293666 4.763339367595554 7.847566584702572 0 0 0
82 1 9.595521190037013 0.015061028186294964 9.40679305166932 0 0 0
84 1 12.767688598646854 0.016284285906464874 9.407524653043902 0 0 0
92 1 9.598835377910916 3.174286394779102 9.403237735073981 0 0 0
94 1 12.76774684929392 3.179691321208985 9.408715200792301 0 0 0
99 1 9.5990080036017 6.335745221801423 9.394504699782459 0 0 0
100 1 12.76863487451307 6.338494641883032 9.403338267143688 0 0 0
212 1 9.572953964410932 9.484891545813943 9.385614898413822 0 0 0
214 1 12.763623083417736 9.502577394648215 9.402563019770708 0 0 0
223 1 9.590441591762838 12.671316909961037 9.403921499902566 0 0 0
224 1 12.762795418065322 12.669186008234078 9.406062396896493 0 0 0
107 1 9.591209817766876 0.024626656837233772 12.572034262652439 0 0 0
81 1 8.008492699088924 1.5951701418046351 10.990258733840601 0 0 0
83 1 11.182262562996362 1.5971732007465649 10.99003048993312 0 0 0
109 1 12.7681831410313 0.02029490146496579 12.570181722964316 0 0 0
188 1 14.35600448828853 1.5987444001532747 10.99146235771804 0 0 0
91 1 8.00060572384714 4.741907690262487 10.985401864489388 0 0 0
117 1 9.593594503878858 3.1757720192840657 12.573948836962968 0 0 0
85 1 12.767797176973527 3.181094531840664 12.574904691022741 0 0 0
93 1 11.179903385208457 4.755592784204387 10.98695162600219 0 0 0
95 1 14.354482254219795 4.761213023200678 10.993460864541861 0 0 0
124 1 9.575027402686606 6.323955201500424 12.555374874484821 0 0 0
125 1 12.765436668386974 6.338771982799367 12.571935299402789 0 0 0
204 1 11.19153989116354 7.908635950618173 10.973999121095364 0 0 0
237 1 9.341829258155688 9.253143203513675 12.322002084680726 0 0 0
230 1 12.807823215494839 9.498668835966216 12.565956954011773 0 0 0
205 1 14.359798153929693 7.920540720039329 10.986711046730445 0 0 0
211 1 7.990705569790866 11.098798659334225 10.974829620644346 0 0 0
247 1 9.58275943365452 12.7140975254029 12.563412819093719 0 0 0
213 1 11.151838722965545 11.061431160299355 10.971817832126405 0 0 0
249 1 11.17931448179596 14.258493868478773 10.986689340721165 0 0 0
215 1 14.355496815334636 11.089530618055806 10.987089925732532 0 0 0
221 1 8.002596252355131 14.262955970977997 10.986187684176906 0 0 0
225 1 14.352344653230782 14.255373203551065 10.984149136964318 0 0 0
106 1 8.007440259857628 1.5981928650569475 14.161600126301288 0 0 0
108 1 11.18190080745705 1.6082166240892795 14.161211051933888 0 0 0
9 1 12.789191265516633 0.06974543472529168 15.767764477261945 0 0 -1
110 1 14.355750191693593 1.6040784939407131 14.154386964255673 0 0 0
250 1 14.332746057431235 14.235780560584779 14.1085702712811 0 0 0
17 1 9.594266837700218 3.181041936613166 15.747332513682744 0 0 -1
119 1 11.176238583393921 4.7597644937736785 14.156659771497708 0 0 0
19 1 12.76936376889433 3.189894858546295 15.74685433791779 0 0 -1
120 1 14.354386216355852 4.762936858730738 14.159613707621514 0 0 0
24 1 9.59084163529292 6.3382538739386955 15.74554164194515 0 0 -1
228 1 7.990956992978814 7.908019307021588 14.170136293597386 0 0 0
25 1 12.761218318470787 6.338985572645321 15.73895924287381 0 0 -1
229 1 11.151817835260047 7.904528237283264 14.132138261099001 0 0 0
200 1 14.355368889281955 7.9209721713334105 14.15762168039826 0 0 0
29 1 9.579670970594895 9.491953710989655 15.786480961631307 0 0 0
139 1 12.740457292121349 9.47149050129511 15.719721775951976 0 0 -1
240 1 12.743415042671423 12.64995695916154 12.541224844673383 0 0 0
147 1 9.56036553575822 12.647960292410874 15.715875663268497 0 0 -1
236 1 7.985989267778641 11.061259799918496 14.129926217712491 0 0 0
173 1 10.764548735189601 10.677166027927123 13.750900744514173 0 0 0
238 1 12.178533306074154 12.083630906212043 15.151142974805659 0 0 0
141 1 14.41639296318125 11.098592282696996 14.166023645067185 -1 0 -1
7 1 9.587893351444862 0.022010857055437743 15.743516555011444 0 0 -1
246 1 8.002897509307783 14.258584376207054 14.157119262271214 0 0 0
248 1 11.186961202185708 14.317697117408402 14.165296112278636 0 0 0
116 1 8.004895401674597 4.755726251255886 14.156980208587767 0 0 0

Velocities

2 0 0 0
4 0 0 0
12 0 0 0
14 0 0 0
126 0 0 0
158 0 0 0
132 0 0 0
196 0 0 0
134 0 0 0
142 0 0 0
144 0 0 0
27 0 0 0
26 0 0 0
28 0 0 0
58 0 0 0
30 0 0 0
37 0 0 0
36 0 0 0
38 0 0 0
39 0 0 0
40 0 0 0
180 0 0 0
47 0 0 0
48 0 0 0
151 0 0 0
156 0 0 0
152 0 0 0
22 0 0 0
160 0 0 0
166 0 0 0
157 0 0 0
168 0 0 0
170 0 0 0
45 0 0 0
167 0 0 0
169 0 0 0
35 0 0 0
51 0 0 0
67 0 0 0
52 0 0 0
53 0 0 0
71 0 0 0
56 0 0 0
57 0 0 0
72 0 0 0
41 0 0 0
80 0 0 0
61 0 0 0
62 0 0 0
63 0 0 0
186 0 0 0
176 0 0 0
177 0 0 0
187 0 0 0
178 0 0 0
181 0 0 0
191 0 0 0
182 0 0 0
192 0 0 0
183 0 0 0
76 0 0 0
78 0 0 0
68 0 0 0
86 0 0 0
66 0 0 0
90 0 0 0
96 0 0 0
97 0 0 0
98 0 0 0
206 0 0 0
208 0 0 0
210 0 0 0
216 0 0 0
218 0 0 0
220 0 0 0
77 0 0 0
101 0 0 0
79 0 0 0
103 0 0 0
219 0 0 0
87 0 0 0
111 0 0 0
89 0 0 0
104 0 0 0
115 0 0 0
121 0 0 0
122 0 0 0
123 0 0 0
231 0 0 0
201 0 0 0
242 0 0 0
202 0 0 0
233 0 0 0
203 0 0 0
207 0 0 0
244 0 0 0
209 0 0 0
243 0 0 0
245 0 0 0
217 0 0 0
105 0 0 0
1 0 0 0
102 0 0 0
3 0 0 0
5 0 0 0
146 0 0 0
113 0 0 0
11 0 0 0
13 0 0 0
114 0 0 0
15 0 0 0
21 0 0 0
127 0 0 0
23 0 0 0
226 0 0 0
131 0 0 0
235 0 0 0
133 0 0 0
135 0 0 0
232 0 0 0
234 0 0 0
143 0 0 0
145 0 0 0
241 0 0 0
49 0 0 0
175 0 0 0
6 0 0 0
8 0 0 0
10 0 0 0
16 0 0 0
18 0 0 0
20 0 0 0
130 0 0 0
128 0 0 0
129 0 0 0
136 0 0 0
137 0 0 0
140 0 0 0
112 0 0 0
148 0 0 0
150 0 0 0
149 0 0 0
159 0 0 0
44 0 0 0
197 0 0 0
185 0 0 0
42 0 0 0
227 0 0 0
43 0 0 0
46 0 0 0
88 0 0 0
50 0 0 0
154 0 0 0
55 0 0 0
153 0 0 0
164 0 0 0
155 0 0 0
172 0 0 0
161 0 0 0
138 0 0 0
162 0 0 0
165 0 0 0
32 0 0 0
171 0 0 0
34 0 0 0
174 0 0 0
31 0 0 0
69 0 0 0
239 0 0 0
59 0 0 0
60 0 0 0
74 0 0 0
75 0 0 0
64 0 0 0
65 0 0 0
189 0 0 0
179 0 0 0
118 0 0 0
194 0 0 0
190 0 0 0
193 0 0 0
184 0 0 0
222 0 0 0
163 0 0 0
195 0 0 0
54 0 0 0
198 0 0 0
33 0 0 0
199 0 0 0
70 0 0 0
73 0 0 0
82 0 0 0
84 0 0 0
92 0 0 0
94 0 0 0
99 0 0 0
100 0 0 0
212 0 0 0
214 0 0 0
223 0 0 0
224 0 0 0
107 0 0 0
81 0 0 0
83 0 0 0
109 0 0 0
188 0 0 0
91 0 0 0
117 0 0 0
85 0 0 0
93 0 0 0
95 0 0 0
124 0 0 0
125 0 0 0
204 0 0 0
237 0 0 0
230 0 0 0
205 0 0 0
211 0 0 0
247 0 0 0
213 0 0 0
249 0 0 0
215 0 0 0
221 0 0 0
225 0 0 0
106 0 0 0
108 0 0 0
9 0 0 0
110 0 0 0
250 0 0 0
17 0 0 0
119 0 0 0
19 0 0 0
120 0 0 0
24 0 0 0
228 0 0 0
25 0 0 0
229 0 0 0
200 0 0 0
29 0 0 0
139 0 0 0
240 0 0 0
147 0 0 0
236 0 0 0
173 0 0 0
238 0 0 0
141 0 0 0
7 0 0 0
246 0 0 0
248 0 0 0
116 0 0 0
