LAMMPS data file via write_data, version 22 Jul 2025, timestep = 44429, units = metal

250 atoms
1 atom types

-1.1072164258150818e-05 15.82598907216431 xlo xhi
0 15.825978000000001 ylo yhi
0 15.825978000000001 zlo zhi

Masses

1 183.841

Atoms # atomic

11 1 1.7446437607188028 1.4129088784586161 1.6006886263902653 0 0 0
4 1 4.90984747214437 1.4130505715525932 1.6006624504717328 0 0 0
180 1 1.7444783675719644 4.5780857504498265 1.6006928359044537 0 0 0
14 1 4.909747392550968 4.578112287215684 1.6006597421525224 0 0 0
15 1 6.492361267472013 2.995486542330439 0.01810051783752045 0 0 0
131 1 1.7445781164402687 7.743220358787319 1.6009195619091239 0 0 0
132 1 4.909724096726154 7.743348593171493 1.6007046413900405 0 0 0
207 1 1.7446138182762234 10.908443313613539 1.6010406689509602 0 0 0
134 1 4.909895447718489 10.908418999420165 1.6009667856915986 0 0 0
34 1 6.4923715783675595 15.656265884577273 6.34854464430589 0 -1 0
46 1 1.7447034362905323 14.073771540271679 1.6009223799239418 -1 0 0
196 1 3.327083039433795 15.656318796678852 6.348539612557594 0 0 0
83 1 4.9099232724363455 14.073771706683267 1.600699994997492 0 0 0
3 1 3.3273033956867524 15.656417927594696 0.018115990569108377 0 -1 0
52 1 1.7445339073785144 1.4128981191070795 4.765972256036324 0 0 0
185 1 4.909715170560856 1.4129836068841704 4.7658430917333865 0 1 0
37 1 1.7443408802509741 4.578074331052541 4.765878235887075 0 0 0
38 1 0.16193810831727426 2.9954520181124793 3.1834188711537856 0 0 0
116 1 3.327176697868074 2.9955332598290463 3.1832512326205356 0 0 0
152 1 4.909513801189969 4.578256289894465 4.765772353735445 0 0 0
40 1 6.492329395171516 2.9954883522505136 3.1832900499487984 0 0 0
126 1 0.16181030443471817 6.1606229040571305 3.18342483681101 0 0 0
157 1 1.744473741063641 7.743252359542236 4.766109333709 1 0 0
47 1 3.32703257684589 6.160777790717895 3.1831039021339422 0 0 0
212 1 4.909684446264771 7.743431198631733 4.76586892794365 0 0 0
48 1 6.492271729346598 6.160638608587189 3.1832823343946295 0 0 0
156 1 0.1620410204084916 9.325738031943335 3.183724679881947 0 0 0
22 1 3.3271377025250235 9.325967938021956 3.1834051909527634 0 0 0
160 1 6.492350911114123 9.325864073724734 3.183414714077569 0 0 0
166 1 0.16218133940735305 12.490995874617454 3.1837689764894126 0 0 0
176 1 1.744589420852293 10.908484639564987 4.7662094474806045 0 0 0
170 1 4.909730807389276 10.908591122678402 4.766005849612502 0 0 0
232 1 3.3272419497721657 12.491181474994987 3.1835098257332612 0 0 0
45 1 6.4923905574359955 12.491088894509485 3.183498028817607 0 0 0
26 1 0.16204963577042392 15.656283403750804 3.1835131320876844 0 -1 0
167 1 1.7446113746094982 14.073800637265867 4.766104536390101 0 0 0
169 1 3.3272815530493673 15.656449992825953 3.1833330179280774 0 0 0
192 1 4.90976112793858 14.073818360606994 4.765959370869962 0 0 0
159 1 6.492470639877389 15.65631215841514 3.1833538042326373 0 -1 0
12 1 0.16196504446125862 6.160609395665239 0.01825480079356361 1 0 -1
150 1 0.16221552679822393 12.49096234759879 0.018514836908674743 1 0 0
158 1 6.492334971982657 9.325820631286541 0.018270295259202762 0 0 0
71 1 0.1617814206461435 2.995470322235765 6.348655057120469 0 0 0
57 1 3.3269296224064018 2.995630046463422 6.348419380260417 0 0 0
72 1 3.326391632665837 6.16131271444477 6.3479978482972985 0 0 0
41 1 6.492048717904455 2.9956620790453394 6.348439765402343 0 0 0
75 1 0.1615062383506424 6.160723439979539 6.348636987584061 1 0 0
135 1 6.492298697249883 6.160631989986498 0.018053301381465454 0 0 0
141 1 0.16211871929327223 9.325714420552202 0.018528023028510376 0 0 0
63 1 6.492141482658166 6.160838692203205 6.348444399322777 0 0 0
61 1 0.1617806433228364 9.325905971197956 6.34879867840524 0 0 0
177 1 3.3269582340689987 9.326193900984213 6.348591484710324 0 0 0
19 1 6.492231613297259 9.32594848435069 6.348662206475506 0 0 0
145 1 6.492522200562881 12.49103250955016 0.01824598051229066 0 0 0
174 1 0.16195931232085964 12.491124490377597 6.348809703725682 1 0 0
127 1 3.327081383582816 6.160755539964019 0.01806379144425371 0 0 0
182 1 3.3270995897996953 12.49126895920207 6.348634446177802 0 0 0
9 1 6.492275985348202 12.491163875254063 6.34866717717772 0 -1 0
78 1 0.16189696641298704 15.656390671945408 6.348738417849777 1 -1 0
13 1 3.327212197034944 2.9955464323679166 0.018026305450684826 0 0 0
2 1 0.1620095691223276 2.9954863637964553 0.018235191289348623 1 0 1
142 1 3.3272687816168465 12.491102816764853 0.018292546843861106 0 0 0
1 1 0.1621192940868241 15.656200472130688 0.018351880868453765 0 -1 0
133 1 3.3272045718838776 9.325862685810117 0.01824380973080517 0 0 0
144 1 6.492590209750023 15.65626810491569 0.018119008656179346 0 0 0
86 1 0.16177549325620644 2.9954785725591195 9.513809379193535 0 0 0
67 1 3.3269158422675926 2.9956877444878747 9.51354014155473 0 0 0
186 1 1.7442216390167522 7.743448990406735 7.931339533399756 0 0 0
222 1 0.16167885932602702 6.160637647154766 9.513890198440878 0 0 0
178 1 3.3268415025711926 6.160875927148028 9.513725896746323 0 0 0
98 1 6.492011487891558 6.160727447764345 9.513606046417005 0 0 0
203 1 0.16177683302222218 9.325872847740644 9.51400093332336 1 0 0
248 1 3.3270310407544406 9.326004602391299 9.513869147045272 0 0 0
209 1 6.492205849276564 9.325907725775965 9.513829016962323 0 0 0
216 1 0.16196251630490857 12.491067038706468 9.513948651537545 0 0 0
218 1 3.3271174644245267 12.491214119764189 9.513831213731414 0 0 0
220 1 6.492281408105225 12.491098228669186 9.513815102689946 0 0 0
24 1 0.16190492384688598 15.65628741255302 9.513930053462975 0 -1 -1
76 1 3.327112391394566 15.656325512851218 9.513783336368057 0 -1 0
77 1 1.744528531926543 1.412868096493088 11.09640729126429 0 0 0
79 1 4.909679985050262 1.4130352527396488 11.096186524112662 0 0 0
187 1 1.7443484228714834 4.578167758747789 11.09636871066185 0 0 0
87 1 0.16192257058882695 2.9954030727072047 12.678956593625555 0 0 0
102 1 3.327100870314557 2.995515428980594 12.678883478692743 0 0 0
140 1 4.909471257525216 4.578198781859726 11.09607539359853 0 0 0
55 1 6.492070313666233 2.9955111588312757 9.513445143397117 0 0 0
125 1 0.16178766702853228 6.160629699722188 12.678988127438698 1 0 0
201 1 1.7444111114483398 7.743287516848282 11.096497750717308 0 0 0
123 1 4.909572906576813 7.7433756334354 11.096375010500937 0 0 0
113 1 3.327014614915994 6.160773630822146 12.678997175529299 0 0 0
129 1 6.492246992797605 6.160625394349126 12.678911435206913 0 0 0
231 1 0.1619174398108635 9.325809323592294 12.679155424526108 0 0 0
233 1 3.3271042812074425 9.325971566210528 12.678969246104883 0 0 0
25 1 6.492363981617272 9.325853227308098 12.678987784160075 0 0 -1
190 1 1.7444923474066347 10.908580803470445 11.096522771839256 1 0 0
208 1 0.16203306249826566 12.490981138587275 12.679197383795021 0 0 0
200 1 4.909704374287859 10.908542197197706 11.096304413561365 0 0 0
143 1 3.327208136296842 12.491162066850865 12.67895185974943 0 0 -1
245 1 6.4924875418724595 12.491071443729384 12.678976952343865 0 0 0
217 1 1.7445213715972487 14.07377145289392 11.09642001127692 0 0 0
223 1 0.16205905093082576 15.656234357045113 12.679066881571954 1 -1 0
105 1 4.9098156987962325 14.073780115830077 11.096383189963765 0 -1 0
81 1 3.3272766558700138 15.656286643621636 12.678984402982755 0 0 0
244 1 6.492412346146325 15.656284622163545 12.678906662271563 0 0 0
111 1 1.7445478168047819 1.412939431566355 14.261515292420597 0 0 0
31 1 4.909854792683439 1.4129189041055548 14.261442566404371 0 1 0
5 1 6.492223707124976 2.995536740160929 12.678804245457089 0 0 -1
110 1 1.7444696840366758 4.57810209023008 14.261477227854908 1 0 0
27 1 4.90990123949152 14.073733221017553 14.261522971273093 0 0 0
114 1 4.909687105999634 4.578131829026833 14.261439469063985 0 0 0
80 1 4.9096982899014625 14.073745017583851 7.931179783005759 0 -1 0
122 1 1.744502953391471 7.743301080704509 14.26163902965626 0 0 0
97 1 1.744467849532383 14.073795312970113 7.931263286940739 0 0 0
242 1 1.7446378002054173 14.073710496497165 14.261644532512271 0 0 0
235 1 4.909713879088726 7.74333627153976 14.261490198845923 0 0 0
191 1 1.7444161719548639 10.908580607542547 7.931337231598567 0 0 0
121 1 4.909641952410201 10.908556763856968 7.9312432758300755 0 0 0
51 1 1.7443937042369486 1.4129696763578543 7.931148169437986 0 0 0
234 1 4.909830083513392 10.90856868611423 14.261547103213823 0 0 0
49 1 1.7445978689531152 10.90847065448102 14.261706843196047 0 0 -1
107 1 6.4922321260243585 15.656384408224474 9.51366620406297 0 -1 0
227 1 4.909505711747342 1.413033692397043 7.930941605056713 0 0 0
70 1 1.744227568109074 4.578267453284355 7.931039385101626 0 -1 0
210 1 4.909438507528814 7.743493321027398 7.931066866150337 0 0 0
168 1 4.909091419330421 4.578674203868938 7.930672309809545 0 0 0
146 1 8.075072112474857 1.4127604493297583 1.6007115533711775 0 1 0
8 1 11.24023104692272 1.4126893365041868 1.6008900501933971 0 0 0
106 1 14.405521657452477 1.4127203503884935 1.60099540412425 0 1 0
17 1 8.074779764800795 4.577995619347368 1.6007142484806618 0 0 0
243 1 11.240061369621637 4.5779070169278455 1.6008032861722863 0 0 0
10 1 12.822803430927362 2.9952973768550577 0.01829641336457823 0 0 0
225 1 14.405414953219463 4.57790131948994 1.6009913487443033 0 1 1
128 1 8.074933188477225 7.743195498648856 1.60075928996152 0 0 0
229 1 11.24009636365394 7.743123678343893 1.6010050468097863 0 0 1
130 1 14.40539253147647 7.743188208762537 1.6010835953452407 0 0 0
136 1 8.075110997006888 10.908295206896275 1.6010293191530414 0 0 0
138 1 11.240284526487386 10.908194251779896 1.6011850930532756 0 0 0
148 1 12.823151780953566 12.490671769097533 0.018744946178159708 0 0 0
164 1 14.405624991235213 10.90821350792732 1.601283852528648 0 0 0
112 1 8.075121626017825 14.073583770731734 1.6008645362227987 0 0 0
109 1 9.657810741749417 15.65598673718491 0.018280502509718046 0 -1 1
224 1 11.240482622674055 14.07332113189796 1.6011734937606075 0 -1 0
101 1 14.405622203134609 14.073566806125118 1.6011426888955897 -1 -1 1
54 1 8.074972536020892 1.412791330943181 4.765972272042131 0 0 0
44 1 11.240076082457717 1.4128024111947939 4.766009590796114 0 0 0
56 1 14.405240764515996 1.4128268147589504 4.76609829699486 -1 0 0
42 1 9.657471403212034 2.9953291696300526 3.1834117055426283 0 0 0
64 1 8.074814839800139 4.578077853727808 4.765899242056876 0 0 0
36 1 12.822721587537885 2.9953979701430486 3.1835215694077688 -1 0 0
59 1 11.239938003409735 4.577981730713212 4.766035207983484 0 0 0
65 1 14.405156360369572 4.5779948304713045 4.766044003501897 0 0 0
88 1 9.657368346431982 6.160545472455225 3.183401066121601 0 0 0
161 1 8.074861657151047 7.743214083097158 4.766038198180634 0 0 0
35 1 12.822627184258073 6.160528320613551 3.183594765320191 0 0 0
181 1 11.239987637394005 7.74315284299765 4.76618556856495 0 0 0
155 1 14.405265922108125 7.743124496337737 4.766254822844787 0 0 0
137 1 9.657513701433878 9.325730077091453 3.1835797722513255 0 0 0
154 1 12.822848460618337 9.325618587567725 3.1838189655803664 0 0 0
66 1 9.657662040826414 12.490895651188147 3.183604680473899 0 0 0
172 1 8.074923853957726 10.90850322486792 4.7661011378571905 0 0 0
162 1 11.240089896049717 10.908333091767483 4.766250486977629 0 0 0
62 1 12.822932392319506 12.490883637742776 3.183809414376787 0 0 0
165 1 14.405413816727858 10.908355189440655 4.7662858755464566 0 0 0
171 1 8.074943315804797 14.073684040502 4.766001457796162 0 0 0
32 1 9.657626538692488 15.656149826227123 3.183498072528757 0 -1 0
103 1 12.822891983191212 15.656114681868695 3.1835875291661266 -1 -2 0
30 1 11.240155105022621 14.073587318283547 4.766164264960843 0 0 0
197 1 14.405423365492217 14.073689366006635 4.76622022225014 0 -1 0
69 1 9.657545037580453 15.6561502381203 6.348730475561625 0 -1 0
139 1 12.82288646867313 9.325602527460688 0.01857402498557399 0 0 0
33 1 12.822674181522514 15.656277527102151 6.348766046064196 0 -1 0
250 1 12.823001681699232 15.65593353706234 0.018477078819619002 0 0 1
90 1 9.657437899776024 2.9953724792101246 6.348579441443359 0 0 0
60 1 12.822551154135667 2.9954213828208887 6.348712631806336 0 0 0
28 1 9.65740533625304 6.1605339266552885 0.018192045643042238 0 0 0
29 1 9.657606394046969 9.325696661125031 0.0184268442779413 0 0 1
175 1 9.65739050028874 6.160634837196026 6.348642774783216 0 0 0
21 1 12.822728593040834 6.1605540149009155 0.0183640537429067 -1 0 0
92 1 12.822456623565468 6.160603118984826 6.348710109217469 0 0 0
18 1 9.657566937348877 2.995256489512327 0.018203474252404886 0 0 0
118 1 9.657333746795066 9.325831812865374 6.34876146999718 0 0 0
194 1 12.822581232511954 9.325725109245157 6.348887878654166 0 0 0
163 1 12.822735631716881 12.490967824693332 6.348861161391755 0 0 0
184 1 9.65741765653827 12.491030161063684 6.348765886508437 0 0 0
147 1 9.657853909049276 12.490797387190355 0.018500189203471323 0 0 0
53 1 9.657353328892889 2.9954451183575914 9.513704482667348 0 -1 0
74 1 8.074672714824153 4.577985462351941 11.096217953112387 0 0 0
94 1 12.822606902307957 2.9953971112330304 9.51385300967659 0 0 0
104 1 9.657323563843878 6.160549825920685 9.513847680581685 0 0 0
183 1 12.822453682224703 6.160543283313912 9.513925429062834 0 0 1
119 1 9.657366150561563 9.325774197522678 9.514017821468405 0 0 0
73 1 12.822621495828212 9.32570665381008 9.513996712067547 0 0 0
221 1 9.657436055943577 12.49098184758854 9.514059113504944 0 0 0
213 1 12.822683719526605 12.490975830881204 9.514083277936878 0 0 0
39 1 9.65749357427638 15.656185493203544 9.513867348823785 0 0 0
84 1 12.822672556134586 15.656202698959763 9.514057045078696 0 -1 0
241 1 14.405664824169527 14.073364882279916 14.261963792304456 0 0 0
120 1 11.240110048974119 1.412701974384087 11.096553750391246 0 0 0
188 1 14.405267597644745 1.4127648620884998 11.096527109641983 0 0 0
20 1 9.65749934292197 2.9953663932921613 12.678986180267316 0 0 0
93 1 11.23993060146183 4.577866637133778 11.096446225327902 0 0 0
228 1 12.822711754416195 2.9952687111029825 12.679039867524923 0 0 0
96 1 14.405173299375276 4.577988178081217 11.096334949617827 -1 0 0
124 1 9.657442469765678 6.160450516666584 12.679055038505172 0 0 0
151 1 8.07482529879881 7.7431441861130255 11.096447831220058 1 0 0
100 1 12.82257322087252 6.16053316408275 12.679014086913762 0 0 0
204 1 11.239922864541093 7.743173875781577 11.096520597436605 0 0 0
89 1 14.405112554406188 7.743191914413984 11.096578950337655 0 0 0
237 1 9.657491369760505 9.325661467735168 12.67913034889542 0 0 0
230 1 12.822766302080739 9.32570042738077 12.679243444449652 0 0 0
211 1 8.074928037878756 10.90843918785114 11.09653794138467 0 0 0
247 1 9.657728264786147 12.490919039685789 12.679277511669433 0 0 0
205 1 11.240116309524549 10.908325215580291 11.096665716809907 0 0 0
6 1 12.822931188909873 12.490799226349951 12.679391667149348 0 0 0
215 1 14.405415767629073 10.90828658361977 11.096716650056939 0 0 0
50 1 9.657586291266762 15.65619235174931 12.679049065808645 0 0 0
7 1 8.074809670477041 1.4129274058392918 11.096244549543927 0 0 -1
249 1 11.240183637284357 14.073491380036161 11.096764454291435 0 0 0
58 1 12.82282417682818 15.655987379808703 12.679261214523095 0 0 0
108 1 14.405364159492157 14.073575492809852 11.09662078460424 0 0 0
219 1 8.07511011917832 1.4127442214890817 14.261555998502704 0 0 0
85 1 11.240298269261833 1.4125412028261342 14.261749977355047 0 0 0
23 1 14.40542323797847 1.4127286506463044 14.261676742158025 0 0 0
153 1 8.074888922756328 4.577918803667675 14.261465199478385 0 0 0
115 1 11.240445634386445 14.073310435167443 14.261931867476054 0 0 0
117 1 11.240084796676655 4.577922238781958 14.26163434275804 0 0 0
95 1 14.405245971134761 4.577973791876135 14.261596215987373 0 0 0
202 1 8.074868157024415 7.743246313069662 14.261570305972358 0 0 0
246 1 8.075255382718986 14.073517869554173 14.261683255626167 0 0 0
173 1 11.24007292882489 7.743150564928875 14.261720415086907 0 0 0
240 1 14.405541999611508 10.908243813966637 14.261889836938657 0 0 0
226 1 14.405331455538075 7.743182807151612 14.261752810637141 -1 0 0
238 1 11.24041608935263 10.908118773725652 14.262012634543733 0 0 0
236 1 8.075057210119173 10.908376771251394 14.26171461921939 0 0 0
16 1 14.405210067984047 14.07370504357027 7.931426900781556 0 0 0
198 1 8.074901562028295 14.07367612056948 7.9313053909951 0 0 0
82 1 8.075024217563602 14.073619991399296 11.096519716927077 0 -1 0
99 1 11.239926294445489 4.577992608266948 7.9312422815662815 0 0 0
239 1 14.405234439038995 1.4129529978153137 7.931303520205337 0 0 0
68 1 8.074829247682995 1.412888713046628 7.931085105751547 0 0 0
149 1 8.074631048156139 4.5781381578741716 7.930981900167481 0 0 -1
206 1 14.405127800342319 4.57802855775122 7.931301588161109 0 0 0
179 1 8.074732091612042 7.743289971816913 7.931225043645014 0 0 0
91 1 11.240033451662539 1.412784242154578 7.9313178809454365 0 0 0
43 1 14.405079500366952 7.743241306773191 7.931389022399808 0 0 0
193 1 8.074713181620684 10.908458124016535 7.931310576286772 0 0 0
195 1 14.4053561029949 10.908324633138134 7.931517636501059 0 0 0
199 1 11.240067793495209 14.073580740971021 7.931402913644649 0 0 0
189 1 11.239881285102344 7.743210161698716 7.931370267574099 0 0 0
214 1 11.23994848955581 10.908436491131273 7.931472231975788 0 0 0

Velocities

11 0 0 0
4 0 0 0
180 0 0 0
14 0 0 0
15 0 0 0
131 0 0 0
132 0 0 0
207 0 0 0
134 0 0 0
34 0 0 0
46 0 0 0
196 0 0 0
83 0 0 0
3 0 0 0
52 0 0 0
185 0 0 0
37 0 0 0
38 0 0 0
116 0 0 0
152 0 0 0
40 0 0 0
126 0 0 0
157 0 0 0
47 0 0 0
212 0 0 0
48 0 0 0
156 0 0 0
22 0 0 0
160 0 0 0
166 0 0 0
176 0 0 0
170 0 0 0
232 0 0 0
45 0 0 0
26 0 0 0
167 0 0 0
169 0 0 0
192 0 0 0
159 0 0 0
12 0 0 0
150 0 0 0
158 0 0 0
71 0 0 0
57 0 0 0
72 0 0 0
41 0 0 0
75 0 0 0
135 0 0 0
141 0 0 0
63 0 0 0
61 0 0 0
177 0 0 0
19 0 0 0
145 0 0 0
174 0 0 0
127 0 0 0
182 0 0 0
9 0 0 0
78 0 0 0
13 0 0 0
2 0 0 0
142 0 0 0
1 0 0 0
133 0 0 0
144 0 0 0
86 0 0 0
67 0 0 0
186 0 0 0
222 0 0 0
178 0 0 0
98 0 0 0
203 0 0 0
248 0 0 0
209 0 0 0
216 0 0 0
218 0 0 0
220 0 0 0
24 0 0 0
76 0 0 0
77 0 0 0
79 0 0 0
187 0 0 0
87 0 0 0
102 0 0 0
140 0 0 0
55 0 0 0
125 0 0 0
201 0 0 0
123 0 0 0
113 0 0 0
129 0 0 0
231 0 0 0
233 0 0 0
25 0 0 0
190 0 0 0
208 0 0 0
200 0 0 0
143 0 0 0
245 0 0 0
217 0 0 0
223 0 0 0
105 0 0 0
81 0 0 0
244 0 0 0
111 0 0 0
31 0 0 0
5 0 0 0
110 0 0 0
27 0 0 0
114 0 0 0
80 0 0 0
122 0 0 0
97 0 0 0
242 0 0 0
235 0 0 0
191 0 0 0
121 0 0 0
51 0 0 0
234 0 0 0
49 0 0 0
107 0 0 0
227 0 0 0
70 0 0 0
210 0 0 0
168 0 0 0
146 0 0 0
8 0 0 0
106 0 0 0
17 0 0 0
243 0 0 0
10 0 0 0
225 0 0 0
128 0 0 0
229 0 0 0
130 0 0 0
136 0 0 0
138 0 0 0
148 0 0 0
164 0 0 0
112 0 0 0
109 0 0 0
224 0 0 0
101 0 0 0
54 0 0 0
44 0 0 0
56 0 0 0
42 0 0 0
64 0 0 0
36 0 0 0
59 0 0 0
65 0 0 0
88 0 0 0
161 0 0 0
35 0 0 0
181 0 0 0
155 0 0 0
137 0 0 0
154 0 0 0
66 0 0 0
172 0 0 0
162 0 0 0
62 0 0 0
165 0 0 0
171 0 0 0
32 0 0 0
103 0 0 0
30 0 0 0
197 0 0 0
69 0 0 0
139 0 0 0
33 0 0 0
250 0 0 0
90 0 0 0
60 0 0 0
28 0 0 0
29 0 0 0
175 0 0 0
21 0 0 0
92 0 0 0
18 0 0 0
118 0 0 0
194 0 0 0
163 0 0 0
184 0 0 0
147 0 0 0
53 0 0 0
74 0 0 0
94 0 0 0
104 0 0 0
183 0 0 0
119 0 0 0
73 0 0 0
221 0 0 0
213 0 0 0
39 0 0 0
84 0 0 0
241 0 0 0
120 0 0 0
188 0 0 0
20 0 0 0
93 0 0 0
228 0 0 0
96 0 0 0
124 0 0 0
151 0 0 0
100 0 0 0
204 0 0 0
89 0 0 0
237 0 0 0
230 0 0 0
211 0 0 0
247 0 0 0
205 0 0 0
6 0 0 0
215 0 0 0
50 0 0 0
7 0 0 0
249 0 0 0
58 0 0 0
108 0 0 0
219 0 0 0
85 0 0 0
23 0 0 0
153 0 0 0
115 0 0 0
117 0 0 0
95 0 0 0
202 0 0 0
246 0 0 0
173 0 0 0
240 0 0 0
226 0 0 0
238 0 0 0
236 0 0 0
16 0 0 0
198 0 0 0
82 0 0 0
99 0 0 0
239 0 0 0
68 0 0 0
149 0 0 0
206 0 0 0
179 0 0 0
91 0 0 0
43 0 0 0
193 0 0 0
195 0 0 0
199 0 0 0
189 0 0 0
214 0 0 0
