LAMMPS data file via write_data, version 22 Jul 2025, timestep = 16907, units = metal

250 atoms
1 atom types

-0.021124998059935503 15.847102998059938 xlo xhi
0 15.825978000000001 ylo yhi
0 15.825978000000001 zlo zhi

Masses

1 183.841

Atoms # atomic

2 1 1.704904966306554 1.568725748717632 1.5623522270357602 0 0 0
4 1 4.883038756825496 1.5555120581433737 1.5820913549414877 0 0 0
12 1 1.698040315156643 4.721657970836441 1.571696319453753 0 0 0
178 1 4.884608180977488 7.8901223358072 7.910324037194682 0 0 0
14 1 4.879873646594067 4.719154406938282 1.5818906470234153 0 0 0
57 1 3.3146485269570323 3.1566543092849373 6.319531348223482 0 0 0
9 1 6.46996821349552 12.634377676606762 6.329546755075915 0 -1 0
126 1 1.7002674109658693 7.8752411502159285 1.5736629126593702 0 0 0
161 1 6.4694848676170595 9.468553545925776 6.3276561536678795 0 0 0
56 1 0.1527445878541868 3.158688018266291 6.358381363251629 0 0 0
132 1 4.87462148650231 7.880533017734886 1.5791878153819954 0 0 0
182 1 3.3024599607996157 12.633251268666918 6.331999845604875 0 0 0
177 1 3.2973556264370454 9.467964603233119 6.3288866117545854 0 0 0
61 1 0.1280602554388222 6.304924359098789 6.333872799710944 0 0 0
46 1 1.7183371057259105 11.05001332887466 1.5818144611588572 -1 0 0
174 1 0.11788179860140907 12.574705514753656 6.324386945002679 1 0 0
134 1 4.879338768160041 11.045576726646999 1.576273659032132 0 0 0
41 1 6.478289016175527 3.1425881577248616 6.330307878416096 0 0 0
53 1 6.473706038325088 15.804031378990764 6.334047090997375 0 -1 0
176 1 0.12186683088737568 9.457096430182014 6.328645236400775 0 0 0
142 1 1.714613466029742 14.218584603952852 1.575730529705098 0 0 0
63 1 6.472225550502024 6.30396402524984 6.327140860158174 0 0 0
144 1 4.883370166459537 14.216120425346281 1.5808277039664225 0 0 0
62 1 3.3000989266881713 6.308833321249165 6.330663638203726 0 0 0
52 1 1.7208766348415618 1.5684524916224958 4.704446181717505 0 0 0
58 1 4.889114788249418 1.5608352708931177 4.748552089887313 0 0 0
38 1 0.12544259349253697 3.1445066570802584 3.1563211739695847 0 0 0
37 1 1.7130659055424513 4.7259377468262125 4.746898422839896 0 0 0
39 1 4.88816619037914 4.72548881663237 4.743539654451598 0 0 0
185 1 3.3004910401253587 3.145812763962947 3.156153564598033 0 1 0
40 1 6.472024793199843 3.1379865744787065 3.163435196611398 0 0 0
180 1 0.12285224977431322 6.301581495642118 3.1582573205600744 0 0 0
151 1 1.7099838150337514 7.883412242574208 4.745436191995746 1 0 0
47 1 3.2932624472589147 6.302526074438428 3.1622411146783853 0 0 0
152 1 4.882012602066099 7.885837170355538 4.744903239797266 0 0 0
48 1 6.467243322339967 6.299264567985288 3.1633673655112986 0 0 0
156 1 0.12660390532464327 9.45921554313127 3.161488619717635 0 0 0
22 1 3.2948296761292957 9.464682833366018 3.1613061433119767 0 0 0
160 1 6.464723148637912 9.46275022411879 3.160035966828422 0 0 0
157 1 1.7148392679420388 11.045437565934119 4.746313603848125 0 0 0
166 1 0.17144169394346465 12.658202822827326 3.187499176706607 0 0 0
170 1 4.883519147127408 11.050277460834062 4.745188967391827 0 0 0
232 1 3.3041530554349596 12.636977038151215 3.1667525345941203 0 0 0
45 1 6.465957137550511 12.628127665327634 3.1581078032947154 0 0 0
26 1 0.11565882181721379 15.797273460958822 3.0998904611558773 0 -1 0
167 1 1.744843116394781 14.243338746452949 4.772261590912317 0 0 0
169 1 3.300179388099373 15.803764414256033 3.1611793031528963 0 0 0
192 1 4.887338335617074 14.222432011242587 4.751561466179285 0 0 0
159 1 6.46990377881689 15.799725463865558 3.1640661439034012 0 -1 0
51 1 0.5376131944206229 0.3888089906831764 6.745806175868502 0 0 0
196 1 3.3188182399760096 0.0038708399315733654 6.359532643178432 0 1 0
72 1 4.893213155450872 4.729666758695017 7.911202316683733 0 0 0
23 1 6.459150127692192 6.292240427314373 0.001607531943115001 0 0 0
15 1 6.469132063103358 3.132357202343012 0.0012487149152401215 0 0 0
13 1 3.291458642098721 3.139194441660246 0.0022574427078065895 0 0 0
127 1 3.284453735523367 6.301106385923102 0.0013010117080032302 0 0 0
210 1 4.884420662569033 11.05175866448603 7.911900759590718 0 0 0
35 1 1.9653757661191733 1.813740092956434 8.167526477426318 0 0 0
24 1 0.1511727643890414 0.005718162656239404 9.519801505332843 0 0 -1
67 1 4.906380833589408 1.5780511403250175 7.934486978594937 0 0 0
86 1 0.11435634934710075 3.1540691879054576 9.518847510809838 0 0 0
71 1 1.7295545784406472 4.740656498012457 7.935440828123931 0 0 0
66 1 3.418001659038491 3.267919177467879 9.626838728495976 0 0 0
234 1 4.87549020452961 11.048595848761412 14.23832742478678 0 0 0
90 1 6.493691035087608 3.147760371434467 9.505128344217704 0 0 0
96 1 0.12440744350084346 6.3082330066154295 9.505244356866227 0 0 0
186 1 1.7112567544109363 7.8880101303895405 7.91622394171368 0 0 0
187 1 3.3030998203211532 6.321634375067856 9.50628816861453 0 0 0
242 1 1.7090916227565296 14.219426492444281 14.241785328817267 0 0 0
98 1 6.4718125281508625 6.303069821577184 9.484289915002721 0 0 0
206 1 0.12132731043839186 9.465642981145683 9.499030712019445 0 0 0
208 1 3.2949426540851374 9.469280975507603 9.497864000196856 0 0 0
175 1 6.4690568205555445 9.469553364151974 9.489949383993125 0 0 0
216 1 0.1251369238379527 12.633303063979598 9.502134893459248 0 0 0
80 1 4.889212450807273 14.219843259999307 7.917775410647793 0 -1 0
218 1 3.3026051227814546 12.628710131911014 9.502409592468906 0 0 0
143 1 1.7069048226215122 11.048907866829188 14.241244495008479 0 0 -1
220 1 6.471999310991475 12.634001747675034 9.494835640036259 0 0 0
158 1 6.44566189608711 9.445508112252602 15.802792642979064 0 0 -1
76 1 3.3123943933111386 15.793690840339062 9.51567215811381 0 -1 0
27 1 4.881846195428707 14.215999731527226 14.243519717486686 0 0 0
68 1 6.478008407160111 15.800655759029873 9.49987304995693 0 -1 0
77 1 1.7208301321033226 1.5856568691054154 11.110651565167975 0 0 0
79 1 4.892057123953281 1.5545475224586518 11.08831677611686 0 0 0
87 1 1.6961808656994009 4.729384759294982 11.099208673731745 0 0 0
111 1 0.10313167253364257 3.1643226045506614 12.689834139394891 0 0 0
89 1 4.917507823847032 4.756631285605316 11.115114287036329 0 0 0
104 1 3.2996307581584907 3.1474381319422235 12.681056426986098 0 0 0
115 1 6.471759719504951 3.126463881274509 12.660385413809564 0 0 0
121 1 0.10100093231241385 6.282231919045206 12.682458583175888 0 0 0
201 1 1.6989171809578938 7.882038616141165 11.087364567940186 0 0 0
122 1 3.278511842546431 6.302778695499854 12.660001463339437 0 0 0
123 1 4.88046578158976 7.895521250691181 11.077212100661674 0 0 0
135 1 6.432401625635357 6.264602302503861 12.621144434731507 0 0 -1
231 1 0.12104143755945372 9.46243624428535 12.659139581252706 0 0 0
233 1 3.28753707772309 9.46787425911058 12.659475983601194 0 0 0
203 1 6.459079455102133 9.469438931640553 12.649653489181542 0 0 0
243 1 1.7077573018655419 11.050675173442581 11.079790985227792 0 0 0
241 1 0.12279705644463627 12.634450178298318 12.659558597862041 0 0 0
207 1 3.2945782064528606 12.634481068319472 12.661650973283287 0 0 0
209 1 4.881348492605115 11.052111098518688 11.076730367561593 0 0 0
245 1 6.466901664716019 12.634038884502518 12.656747669053672 0 0 0
168 1 0.12707251568281805 15.810453684671032 12.663340683161337 0 -1 0
217 1 1.7134425010921055 14.221375078609197 11.084657184089366 0 0 0
103 1 3.2982762856307657 15.802919790652318 12.668309981842453 0 -1 0
105 1 4.887743642415461 14.215045086848367 11.083046994850292 0 -1 0
244 1 6.472170468035606 15.797653620278831 12.66172683687658 0 0 0
102 1 1.7009934833681022 1.569387829947648 14.246603104396545 0 0 0
5 1 4.882997011405585 1.5546133437392515 14.24798467630169 0 0 -1
113 1 1.72547244982755 4.722042753681063 14.248397990189746 0 0 0
114 1 4.883619313560982 4.719584480399208 14.253344725801629 0 0 0
226 1 1.694100468950382 7.873184103151095 14.241793843627066 0 0 0
235 1 4.857356711741587 7.874185698074186 14.232743548989882 0 0 0
191 1 1.7131939401218255 11.040618652704781 7.917086779581927 0 0 0
97 1 1.7226975020954156 14.176921199029707 7.926197653404718 0 0 0
21 1 0.1016395230319824 6.279790128275098 15.80509621538721 0 0 -1
11 1 0.10242027109307612 3.161287239232218 15.803423761439381 0 0 -1
1 1 0.12198071644925093 15.805399150181795 15.814585101286934 0 -1 -1
3 1 3.295410923967719 15.801131907422413 15.824222156691128 0 -1 -1
183 1 3.296121123235156 12.633094940336502 15.823539187705641 0 0 0
49 1 0.12781668849790534 12.633469288416132 15.819052243462076 0 0 -1
145 1 6.4646493160291145 12.630474805624797 15.82010524383949 0 0 -1
133 1 3.288461090207561 9.463241980059284 15.821465193630832 0 0 -1
131 1 0.13118680273719766 9.45737919464147 15.821082760524698 0 0 -1
146 1 6.469461673802363 15.798149328042179 15.825406180951896 0 0 -1
6 1 8.058264544563004 1.5561839265535973 1.5807375003202861 0 0 0
8 1 11.240889548306487 1.575746695958123 1.5722790545550094 0 0 0
10 1 14.404892058085066 1.5740179853045555 1.563736086669297 0 0 0
16 1 8.05645696581268 4.7150714951653905 1.5775674251484548 0 0 0
78 1 14.999966891460726 14.810477286993793 5.336987640807133 0 -1 0
18 1 11.2380869678864 4.7183886928938366 1.5643568329600994 0 0 0
20 1 14.40442849693743 4.720926505808901 1.5966140612822288 0 0 0
128 1 8.04456522827161 7.870739471787837 1.5842016241135437 0 0 0
129 1 11.213230607580755 7.852378596196545 1.5418447815927503 0 0 0
92 1 8.064783862118494 4.722144809009784 7.910094531763184 0 0 0
130 1 14.405447323245294 7.867383075467919 1.5671581284028029 0 0 0
163 1 12.841829194214048 12.656712632913084 6.379669807558784 0 0 0
136 1 8.035085791814625 11.020160252382711 1.5505740864145892 0 0 0
33 1 12.75928505221396 15.79187283369097 6.3211552802348265 0 -1 0
137 1 10.805417220622944 10.632438087570188 1.1632953872210128 0 0 0
138 1 12.22162622947602 12.033771227696722 2.5642847041428882 0 0 0
140 1 14.46485641279899 11.054359056311112 1.586400408469796 0 0 0
34 1 9.635107682860172 15.798370473936837 6.328108596552007 0 -1 0
112 1 8.052257059888356 14.21769178198151 1.5786304519352465 0 0 0
179 1 8.057978985699592 7.883935058415636 7.909030529928419 0 0 0
148 1 11.239293149898726 14.276994087144939 1.5872761085912774 0 0 0
150 1 14.38099984549889 14.196044313599923 1.5281616381031549 0 0 0
54 1 8.057787865359868 1.557263681351428 4.745979960567422 0 0 0
44 1 11.227368358802034 1.56233994182409 4.744242468591106 0 0 0
224 1 12.843215976814733 0.02847260460224694 3.1831205047161197 0 0 0
36 1 14.430183058766147 1.5925116568685553 4.768374625421181 -1 0 0
42 1 9.646328987869856 3.140802674473744 3.1600525291522117 0 0 0
64 1 8.059882891897603 4.719897813387697 4.744195486247625 0 0 0
227 1 12.821520257480872 3.1470261580742585 3.159405415103343 0 0 0
43 1 11.23337060414692 4.721163731184973 4.74233817861682 0 0 0
65 1 14.410391753786636 4.724082798642356 4.7521093562964705 0 0 0
88 1 9.642881774978717 6.296486755738655 3.157113282609246 0 0 0
153 1 8.051804388129522 7.877990726223673 4.750370598611844 0 0 0
50 1 12.813608692313368 6.298185867820782 3.151334043067274 0 0 0
154 1 11.230593133646412 7.877734417715368 4.7449366160825255 0 0 0
155 1 14.401942804989968 7.87502439560288 4.740930813918442 0 0 0
55 1 9.633654391007475 9.452023339218435 3.2051070518091596 0 0 0
164 1 12.794225236428554 9.428659726580806 3.135466134185291 0 0 0
19 1 8.051919496452944 11.047842356459459 4.746551904373961 0 0 0
172 1 9.609722446035885 12.607056143787693 3.136795990322497 0 0 0
162 1 11.237501704933383 11.055853447286362 4.804810285621566 0 0 0
165 1 14.38091367393146 11.000307884939387 4.721914951942079 0 0 0
32 1 9.641011930237909 15.806477644537571 3.16082575469881 0 -1 0
171 1 8.049292791482346 14.213480766576007 4.742628007415271 0 0 0
30 1 11.17950753278334 14.192343251036815 4.7212071562105224 0 0 0
197 1 13.606213251969601 13.425445038106973 3.9512104910894825 0 -1 0
59 1 9.646749419040447 3.1398394675716608 6.328202771730971 0 0 0
60 1 12.817764674497594 3.143434587841832 6.330806134713709 0 0 0
181 1 9.646995228436397 6.301074150201811 6.3271367427188485 0 0 0
73 1 12.81956626205821 6.301697419468419 6.328810922096594 0 0 0
118 1 9.641623737502869 9.463072457898061 6.339014262365271 0 0 0
194 1 12.81847872322795 9.460822986541944 6.334055657337204 0 0 0
184 1 9.638900473542135 12.63271894630382 6.33436046117954 0 0 0
193 1 8.057020406052995 11.050358798891011 7.91250699806057 0 0 0
248 1 11.23088272833341 14.219331974842062 14.235997098541308 0 0 0
246 1 8.051777155894397 14.22161448547269 14.235675998698465 0 0 0
239 1 14.362982528053832 1.568383341409636 7.925954754563849 0 0 0
219 1 8.06567418955576 1.5536098618100593 11.079859013419247 0 0 0
81 1 9.652016406163849 3.1398750335011054 9.497840139499303 0 0 0
94 1 12.813694330841122 3.144071237888191 9.507445213683093 0 0 0
200 1 14.410968302203566 7.893700020675863 14.236653437141944 0 0 0
149 1 12.792594904945721 12.608734884822267 15.789109884770216 0 0 -1
99 1 9.650091078648543 6.299739847453941 9.491815575458745 0 0 0
141 1 14.404598243411174 11.0482647498796 14.237303800526112 -1 0 -1
100 1 12.819958851853203 6.302740445883529 9.499828041708545 0 0 0
238 1 11.204034847412602 11.017879352139763 14.221175851545482 0 0 0
147 1 9.632981833101027 12.677565467352572 15.81137206784113 0 0 -1
119 1 9.64498568095096 9.462890717171925 9.49385328380806 0 0 0
214 1 12.819328915618627 9.463808646292387 9.498513822410422 0 0 0
223 1 9.644524925281884 12.632245383553123 9.496875279319097 0 0 0
189 1 11.233348068033973 7.882611775528835 7.9131750002049674 0 0 0
213 1 12.821774300842227 12.636121235193105 9.504416814743301 0 0 0
222 1 11.233009082165973 11.050263933740482 7.923048563174397 0 0 0
75 1 14.408077979474685 4.725229052146219 7.915773027240833 0 0 0
236 1 8.042570073233644 11.054535026555651 14.228508094299835 0 0 0
82 1 9.648107367040355 15.800141896421085 9.498566406988155 0 -1 0
84 1 12.819034797591575 15.803109236487684 9.503215221895548 0 -1 0
101 1 14.40161246488332 14.212870005092187 14.23401131644657 -1 -1 0
70 1 14.430581446370825 14.242485497694839 7.947479686409533 0 -1 0
139 1 12.854470162450085 9.45021958639924 15.815117854204344 0 0 -1
120 1 9.652934035744678 3.1326002650966394 12.657990597906686 0 0 0
83 1 11.2418538363625 1.5627432127294694 11.087162915144773 0 0 0
188 1 14.407242768551022 1.5714699971911168 11.095219743236807 0 0 0
117 1 11.212130591240834 4.712834203714905 14.237478551483926 0 0 0
91 1 8.072257360767848 4.720177171401854 11.078571175791176 0 0 0
85 1 12.839078888287535 3.1579891585673834 12.681982597286126 0 0 0
93 1 11.244561551426308 4.718876481565235 11.087261658309826 0 0 0
95 1 14.403474025010919 4.723850565856296 11.065623407969255 0 0 0
124 1 9.652650835224538 6.294227335923261 12.65153210611304 0 0 0
25 1 8.05038903486633 7.87515318098096 11.0577597123439 0 0 -1
125 1 12.84302290019106 6.273826682431947 12.675604740037073 0 0 0
204 1 11.239157397386471 7.871938497667709 11.07920007358513 0 0 0
205 1 14.404326044874438 7.874355324873022 11.087847896012132 0 0 0
237 1 9.62669582494523 9.441882612030813 12.641890148202625 0 0 0
230 1 12.81694962668319 9.4565664439562 12.654458268731803 0 0 0
211 1 8.05471022079523 11.047738026198866 11.072592029028327 0 0 0
247 1 9.641008961067458 12.629307012288576 12.65550498912918 0 0 0
212 1 11.227900666969727 11.043288241963474 11.076632347359595 0 0 0
240 1 12.812901169770926 12.627822957081355 12.656048837414527 0 0 0
215 1 14.403981727709976 11.04823838657806 11.079856871935874 0 0 0
107 1 9.648322488584892 15.799488630653126 12.65997710498825 0 -1 0
221 1 8.05973248998034 14.215346506379005 11.077455909946709 0 0 0
249 1 11.232545534564437 14.216498535473477 11.079233088204434 0 0 0
225 1 12.819413494168725 15.805367101147244 12.65950656591701 0 0 0
108 1 14.410134086140353 14.22399760898559 11.083226212736465 0 0 0
106 1 8.059462069478771 1.5533534835106018 14.241479488846698 0 0 0
109 1 11.242873546901453 1.5665741470495944 14.240425588815814 0 0 0
110 1 14.404934270401785 1.5416874495259947 14.241383627138573 0 0 0
116 1 8.047211335548718 4.700167478734909 14.232961284134444 0 0 0
29 1 9.406836348460217 9.195575448505096 15.551586667242702 0 0 0
228 1 12.838101999625106 3.1615355802320746 15.801429211654877 0 0 0
28 1 9.63069979365941 6.282619306425798 15.8011208312971 0 0 -1
173 1 11.262993123309718 7.850394952537248 14.22109930285472 0 0 0
69 1 11.22340491022211 1.559451038401828 7.9169996855758065 0 0 0
229 1 12.838067868279412 6.272751220046061 15.79880603754446 0 0 0
199 1 11.227251638186033 14.216572003036918 7.918521277854221 0 0 0
74 1 11.23527743619237 4.721369563105727 7.913031352241867 0 0 0
31 1 8.063420168840976 1.5581939963184501 7.914894962721449 0 0 0
198 1 8.057683938547648 14.216933002596658 7.9138945997850465 0 0 0
250 1 12.817769306130876 15.811236217069691 15.81801808035406 0 0 0
195 1 14.405156214142929 11.044862475174764 7.9189186293364155 0 0 0
190 1 14.405568917681588 7.882445103165292 7.915461766490968 0 0 0
202 1 7.924277999814779 7.754524983967336 14.11349199826297 0 0 0
17 1 9.648384097603063 3.1348423098482705 15.821711235154236 0 0 -1
7 1 9.643679073843437 15.811392144518974 15.819469642079786 0 -1 -1

Velocities

2 0 0 0
4 0 0 0
12 0 0 0
178 0 0 0
14 0 0 0
57 0 0 0
9 0 0 0
126 0 0 0
161 0 0 0
56 0 0 0
132 0 0 0
182 0 0 0
177 0 0 0
61 0 0 0
46 0 0 0
174 0 0 0
134 0 0 0
41 0 0 0
53 0 0 0
176 0 0 0
142 0 0 0
63 0 0 0
144 0 0 0
62 0 0 0
52 0 0 0
58 0 0 0
38 0 0 0
37 0 0 0
39 0 0 0
185 0 0 0
40 0 0 0
180 0 0 0
151 0 0 0
47 0 0 0
152 0 0 0
48 0 0 0
156 0 0 0
22 0 0 0
160 0 0 0
157 0 0 0
166 0 0 0
170 0 0 0
232 0 0 0
45 0 0 0
26 0 0 0
167 0 0 0
169 0 0 0
192 0 0 0
159 0 0 0
51 0 0 0
196 0 0 0
72 0 0 0
23 0 0 0
15 0 0 0
13 0 0 0
127 0 0 0
210 0 0 0
35 0 0 0
24 0 0 0
67 0 0 0
86 0 0 0
71 0 0 0
66 0 0 0
234 0 0 0
90 0 0 0
96 0 0 0
186 0 0 0
187 0 0 0
242 0 0 0
98 0 0 0
206 0 0 0
208 0 0 0
175 0 0 0
216 0 0 0
80 0 0 0
218 0 0 0
143 0 0 0
220 0 0 0
158 0 0 0
76 0 0 0
27 0 0 0
68 0 0 0
77 0 0 0
79 0 0 0
87 0 0 0
111 0 0 0
89 0 0 0
104 0 0 0
115 0 0 0
121 0 0 0
201 0 0 0
122 0 0 0
123 0 0 0
135 0 0 0
231 0 0 0
233 0 0 0
203 0 0 0
243 0 0 0
241 0 0 0
207 0 0 0
209 0 0 0
245 0 0 0
168 0 0 0
217 0 0 0
103 0 0 0
105 0 0 0
244 0 0 0
102 0 0 0
5 0 0 0
113 0 0 0
114 0 0 0
226 0 0 0
235 0 0 0
191 0 0 0
97 0 0 0
21 0 0 0
11 0 0 0
1 0 0 0
3 0 0 0
183 0 0 0
49 0 0 0
145 0 0 0
133 0 0 0
131 0 0 0
146 0 0 0
6 0 0 0
8 0 0 0
10 0 0 0
16 0 0 0
78 0 0 0
18 0 0 0
20 0 0 0
128 0 0 0
129 0 0 0
92 0 0 0
130 0 0 0
163 0 0 0
136 0 0 0
33 0 0 0
137 0 0 0
138 0 0 0
140 0 0 0
34 0 0 0
112 0 0 0
179 0 0 0
148 0 0 0
150 0 0 0
54 0 0 0
44 0 0 0
224 0 0 0
36 0 0 0
42 0 0 0
64 0 0 0
227 0 0 0
43 0 0 0
65 0 0 0
88 0 0 0
153 0 0 0
50 0 0 0
154 0 0 0
155 0 0 0
55 0 0 0
164 0 0 0
19 0 0 0
172 0 0 0
162 0 0 0
165 0 0 0
32 0 0 0
171 0 0 0
30 0 0 0
197 0 0 0
59 0 0 0
60 0 0 0
181 0 0 0
73 0 0 0
118 0 0 0
194 0 0 0
184 0 0 0
193 0 0 0
248 0 0 0
246 0 0 0
239 0 0 0
219 0 0 0
81 0 0 0
94 0 0 0
200 0 0 0
149 0 0 0
99 0 0 0
141 0 0 0
100 0 0 0
238 0 0 0
147 0 0 0
119 0 0 0
214 0 0 0
223 0 0 0
189 0 0 0
213 0 0 0
222 0 0 0
75 0 0 0
236 0 0 0
82 0 0 0
84 0 0 0
101 0 0 0
70 0 0 0
139 0 0 0
120 0 0 0
83 0 0 0
188 0 0 0
117 0 0 0
91 0 0 0
85 0 0 0
93 0 0 0
95 0 0 0
124 0 0 0
25 0 0 0
125 0 0 0
204 0 0 0
205 0 0 0
237 0 0 0
230 0 0 0
211 0 0 0
247 0 0 0
212 0 0 0
240 0 0 0
215 0 0 0
107 0 0 0
221 0 0 0
249 0 0 0
225 0 0 0
108 0 0 0
106 0 0 0
109 0 0 0
110 0 0 0
116 0 0 0
29 0 0 0
228 0 0 0
28 0 0 0
173 0 0 0
69 0 0 0
229 0 0 0
199 0 0 0
74 0 0 0
31 0 0 0
198 0 0 0
250 0 0 0
195 0 0 0
190 0 0 0
202 0 0 0
17 0 0 0
7 0 0 0
