LAMMPS data file via write_data, version 22 Jul 2025, timestep = 14590, units = metal

250 atoms
1 atom types

-0.016982296249723035 15.842960296249718 xlo xhi
0 15.825978000000001 ylo yhi
0 15.825978000000001 zlo zhi

Masses

1 183.841

Atoms # atomic

2 1 1.662962455006871 1.5488155252038234 1.6171665123411803 0 0 0
4 1 4.846256584091582 1.549975665986261 1.619112774459197 0 0 0
12 1 1.6671930332921572 4.696733131307367 1.6161460375023475 0 0 0
11 1 0.07993061041934361 3.113061976747218 0.038000864634130084 0 0 0
14 1 4.84744672816776 4.6991907535015605 1.6185971278756175 0 0 0
13 1 3.25795431048228 3.1232307359526854 0.03791796564253447 0 0 0
15 1 6.43672948427374 3.1236095326739943 0.03785117350809861 0 0 0
126 1 1.6690179074264424 7.870033416277941 1.618362460087881 0 0 0
21 1 0.08966527615874606 6.283732154621153 0.03795403823874257 0 0 0
127 1 3.247730024831913 6.273814842318648 0.03785804854461617 0 0 0
132 1 4.824154141651464 7.847168407741012 1.5970167395638926 0 0 0
23 1 6.435187047568825 6.279882317700314 0.03790925848847027 0 0 0
131 1 0.09015500983763959 9.456321643822168 0.03787135662003629 0 0 0
133 1 3.2529780400921076 9.454592861071962 0.037911605941768615 0 0 0
158 1 6.425169169784386 9.445073665443546 0.03792912007432634 0 0 0
46 1 1.6706813887664687 11.039414446069477 1.6186762442307703 -1 0 0
49 1 0.08086717012041865 12.62820840076029 0.037888571422134275 0 0 0
183 1 3.2504012982685477 12.622453733298316 0.03791743643583831 0 0 1
134 1 4.842369889560838 11.03896266142175 1.6141127142920504 0 0 0
145 1 6.425179321077334 12.634000896964908 0.037920930474268984 0 0 0
142 1 1.662610846305679 14.204096445160216 1.6184672137186953 0 0 0
1 1 0.10752449145970386 15.786095859928865 0.0379448893253279 0 -1 0
3 1 3.2462250630118175 15.801750312874217 0.03785031374345615 0 -1 0
144 1 4.820715124768747 14.230371391138483 1.5956144994736858 0 0 0
146 1 6.430387025474504 15.795490898487996 0.03785046276404556 0 0 0
52 1 1.6686516882272437 1.545796970695192 4.781114663778608 0 0 0
58 1 4.846966349138226 1.5500143736104646 4.783483079954571 0 0 0
38 1 0.08157699584742782 3.1148515573841804 3.1938718446654253 0 0 0
37 1 1.669314326283397 4.6990188377098745 4.781422848713085 0 0 0
39 1 4.847339706859634 4.698074903164294 4.783720300030939 0 0 0
185 1 3.2577606128924503 3.1236091818461538 3.2006046296250763 0 1 0
40 1 6.438146583239479 3.1240875800381667 3.2042932558321753 0 0 0
180 1 0.08995417714907782 6.283606905807317 3.2002605974321794 0 0 0
151 1 1.6673164053567873 7.869973885481452 4.7833606420657375 1 0 0
47 1 3.240522693900565 6.266752969705289 3.18430653828772 0 0 0
152 1 4.788292892285423 7.811827433603499 4.729754883174829 0 0 0
48 1 6.4359555905108286 6.279822251783902 3.1993387038997505 0 0 0
156 1 0.09053089560769889 9.457781439331848 3.2037246203203242 0 0 0
22 1 3.251928940818078 9.45551735102838 3.1989174644248255 0 0 0
160 1 6.373289384595936 9.394274029555994 3.143617600026119 0 0 0
157 1 1.679850826662725 11.040049089019135 4.784203037924983 0 0 0
166 1 0.0821600189906536 12.626275520364722 3.1956557474128275 0 0 0
168 1 3.24932148398506 12.62191328942959 3.1982447166166845 0 0 0
170 1 4.885115079081477 11.039806723591473 4.7754804347646616 0 0 0
45 1 6.368210549398711 12.688769998079483 3.140479984089528 0 0 0
26 1 0.0789373139335476 15.788201122811861 3.189336394177849 0 -1 0
167 1 1.6640496827915814 14.206551811550698 4.78101397819087 0 0 0
169 1 3.237638193176344 15.808023670309268 3.183205911009051 0 0 0
232 1 4.786442623245538 14.265668978590536 4.729279178973609 0 0 0
159 1 6.436050457410435 15.795503561800654 3.1981654905601853 0 -1 0
56 1 0.08972021797263169 3.12324813693571 6.367040197716742 0 0 0
57 1 3.260038606535095 3.123815788654613 6.3672073389107124 0 0 0
41 1 6.440931260429304 3.1236798557016368 6.37004025281547 0 0 0
61 1 0.09017075461069833 6.285933683220368 6.366992330747353 0 0 0
62 1 3.2472492251389626 6.2738271749940955 6.35849518809939 0 0 0
63 1 6.437117138415367 6.2919987318762285 6.366367827821253 0 0 0
176 1 0.0900873713557055 9.46058593736422 6.3696781581849455 0 0 0
177 1 3.2627968514316037 9.456916407230793 6.366199828936481 0 0 0
178 1 6.260677694781399 9.281205068938695 6.315283979745653 0 0 0
174 1 0.0893108111793814 12.616625323144136 6.368242776665061 1 0 0
182 1 3.261852031814281 12.620785306303615 6.365986101244544 0 0 0
192 1 6.261313950477963 12.799401732128315 6.315259288773936 0 0 0
51 1 0.08863110994937518 15.788012655666323 6.365064274682833 0 -1 0
196 1 3.2460178133006776 15.801241672047311 6.358307626805055 0 0 0
53 1 6.436453676067157 15.78228485138386 6.3663447268446625 0 -1 0
35 1 1.672618005139463 1.544622569301771 7.950893437173624 0 0 0
67 1 4.84795913951115 1.5484804285557727 7.950877792439386 0 0 0
86 1 0.08985654272839215 3.1233733834914026 9.534798363077465 0 0 0
71 1 1.6733208649533684 4.703144509979212 7.950862862995395 0 0 0
66 1 3.2601913969129153 3.1239204165461416 9.534457594515876 0 0 0
72 1 4.848350257509616 4.69989679483833 7.95079280968319 0 0 0
90 1 6.440970404795399 3.123720684639289 9.531627169117202 0 0 0
96 1 0.09027172434799467 6.2860548030766745 9.53468843730411 0 0 0
186 1 1.6688009682038536 7.8709925890053904 7.950796900095916 0 0 0
97 1 3.2472712547279645 6.273830775417715 9.543232466206057 0 0 0
187 1 4.782901039707716 7.806859267692487 7.950984736046791 0 0 0
98 1 6.437268572260824 6.29211898392656 9.535256327285413 0 0 0
206 1 0.09011912362889359 9.460581906114104 9.532033721598133 0 0 0
208 1 3.2628946826364666 9.457031750151009 9.535417002948993 0 0 0
175 1 6.260901255464517 9.281823349179694 9.586334064693567 0 0 0
216 1 0.08935548538135055 12.616676892160545 9.533509631298045 0 0 0
191 1 1.6943398917147061 11.038739356446088 7.950820603287396 0 0 0
210 1 4.971691598713037 11.0397349149079 7.950805363226915 0 0 0
218 1 3.261865720190123 12.620724340482772 9.53573332222902 0 0 0
220 1 6.261865404452377 12.79873854746388 9.58628000402762 0 0 0
24 1 0.08871758642071234 15.788046633954412 9.536695244991833 0 -1 -1
76 1 1.667328126448301 14.205068417353294 7.9508564775225254 0 -1 0
78 1 3.245972941144033 15.801370035595308 9.543509183133711 0 -1 0
80 1 4.78131157173955 14.270127280097476 7.95107476706221 0 -1 0
68 1 6.436599175988178 15.78223894788827 9.535414227955163 0 -1 0
77 1 1.668804785394414 1.5459535593378755 11.120682352820543 0 0 0
79 1 4.8470737609498515 1.5500281034787002 11.118184211589508 0 0 0
87 1 1.6695303840379643 4.699214392778366 11.120312418864756 0 0 0
111 1 0.08180858367835618 3.115053788425527 12.707865189913965 0 0 0
89 1 4.847518807206547 4.698214741364145 11.117896630274224 0 0 0
104 1 3.25790405051212 3.1237408560629922 12.701101545314119 0 0 0
115 1 6.438190417076018 3.1241489395513575 12.697285981898588 0 0 0
121 1 0.09014097180672966 6.283684544364765 12.70152235783611 0 0 0
201 1 1.6674673934315873 7.8700918360695855 11.118279961911819 0 0 0
122 1 3.2407392796071237 6.2669047245166825 12.717406308199749 0 0 0
123 1 4.78860533887187 7.812106182426856 11.171780024662183 0 0 0
135 1 6.436160135430016 6.279898656959137 12.702360142629717 0 0 -1
231 1 0.09059810939098428 9.457776202896762 12.697911277275693 0 0 0
233 1 3.252032104730799 9.45567788703452 12.702774994186653 0 0 0
203 1 6.373276203129578 9.394238062403133 12.758206054550216 0 0 0
243 1 1.6798915834552905 11.040058120071487 11.117412652617494 0 0 0
241 1 0.08225824056498854 12.626308201040052 12.706009529962884 0 0 0
207 1 3.249286406297247 12.621925523566375 12.703469555644723 0 0 0
209 1 4.885256145953605 11.0399037958916 11.12634950120595 0 0 0
245 1 6.368161869705262 12.688951497214074 12.76138674456466 0 0 0
101 1 0.0791595395347853 15.788380981220524 12.71244940886613 0 -1 0
217 1 1.6641113564842827 14.206608982074567 11.120694536459665 0 0 0
103 1 3.2378092314150972 15.80797473041756 12.718455698055113 0 -1 0
105 1 4.786728797832796 14.26538773589517 11.172129120505621 0 -1 0
244 1 6.436112316160687 15.795540560542653 12.703503803741238 0 0 0
102 1 1.66310401120991 1.5488821469321319 14.284633798028583 0 0 0
5 1 4.846277042287578 1.550052167568461 14.28255799649001 0 0 -1
113 1 1.6673098770408947 4.696807104007132 14.285648862965301 0 0 0
114 1 4.847521450280393 4.6992660596244376 14.283114436191644 0 0 0
226 1 1.6691384546661867 7.8700815462747125 14.283347800178763 0 0 0
235 1 4.824269065449198 7.847266936748416 14.304683538205216 0 0 0
143 1 1.6706653057949055 11.03944419436759 14.283022855555332 0 0 -1
234 1 4.842396217001207 11.038970789957743 14.28772669864304 0 0 0
242 1 1.662704389218678 14.204153911951279 14.283291756985506 0 0 0
27 1 4.820669830562696 14.23042108684613 14.306098595559057 0 0 0
6 1 8.023959888583308 1.5466554149918357 1.6207012404818955 0 0 0
8 1 11.210827024862569 1.5258450131096686 1.5951393808410244 0 0 0
10 1 14.348577922248277 1.5247477763246187 1.5920185274714247 0 0 0
16 1 8.022976329793691 4.700930127223723 1.6190098354567029 0 0 0
17 1 9.614442601491668 3.1135704959757193 0.03789007135937415 0 0 0
18 1 11.193854996295114 4.691931427187588 1.6184187857989552 0 0 0
19 1 12.778992485364956 3.138265406226561 0.037976173862081714 0 0 0
20 1 14.371088567371318 4.691983148257847 1.6170156701083565 0 0 0
28 1 9.609148030519696 6.2773369857638945 0.03795289682585677 0 0 0
128 1 8.022607569830173 7.866605761782187 1.6146322071465216 0 0 0
129 1 11.220474989006865 7.844146668890792 1.5955478975262012 0 0 0
229 1 12.794720016665131 6.271832507044935 0.03794817847256487 0 0 1
130 1 14.372961767336188 7.868919636531217 1.6187944796893794 0 0 0
29 1 9.62104380423699 9.445570979784733 0.03795165674857394 0 0 1
139 1 12.789670486407188 9.450742706350685 0.037904656540943146 0 0 0
136 1 8.024802872377867 11.041471580604146 1.5778863620312704 0 0 0
147 1 9.629663759917547 12.643144950957002 0.03792777616308109 0 0 0
137 1 11.20085209792172 11.04299271841335 1.6137432050116427 0 0 0
149 1 12.790144773611136 12.59525772176224 0.037908997714291716 0 0 0
140 1 14.370073528395054 11.041176069122066 1.6201236736835163 0 0 0
112 1 8.025456605038295 14.209312424490275 1.6146715713116426 0 0 0
7 1 9.57874740215539 15.795650377297964 0.03789361757751078 0 -1 0
148 1 11.248695209427556 14.259997948093881 1.5603893855159223 0 0 0
150 1 14.351110755406136 14.222190988904698 1.595238731742621 0 0 0
54 1 8.02352548526279 1.5345754661494229 4.784284287606011 0 0 0
44 1 11.195091621587586 1.548723109648204 4.776549902169156 0 0 0
36 1 14.36947687244708 1.546763906837617 4.776957378836931 -1 0 0
42 1 9.612685718121053 3.1151755626124826 3.1959928523045993 0 0 0
64 1 8.023581729315644 4.710733506700139 4.784679340362303 0 0 0
227 1 12.780978232297791 3.1114002169136343 3.1890914881779673 0 0 0
43 1 11.196195713547809 4.694444786237175 4.781075443388589 0 0 0
65 1 14.368258975396166 4.69810118423362 4.7808810680911265 0 0 0
88 1 9.608732726629047 6.277131834912054 3.1984886372151857 0 0 0
153 1 8.023505500693533 7.910396057395304 4.775855317702579 0 0 0
50 1 12.800952229394355 6.263867686648325 3.183148999583966 0 0 0
154 1 11.255847646372144 7.8105303880614025 4.729388431391636 0 0 0
155 1 14.373514707537414 7.869642994534166 4.783042779103972 0 0 0
55 1 9.676729242481663 9.390000323622699 3.140219444957733 0 0 0
164 1 12.79045269709746 9.456009327488761 3.1974898327743646 0 0 0
172 1 9.689908771529721 12.701982076015423 3.126153323737346 0 0 0
161 1 8.031944012855906 11.048829206434005 4.29633716611203 0 0 0
138 1 12.790193004057254 12.632086874917537 3.1860816686189883 0 0 0
162 1 11.161925523430527 11.041295818388834 4.771787719376169 0 0 0
165 1 14.35849255628587 11.040286385449503 4.783566454091795 0 0 0
32 1 9.617898471447136 15.795065237888723 3.186891549503147 0 -1 0
171 1 8.024588363154308 14.169232869748793 4.772598572791147 0 0 0
224 1 12.802889234190616 15.809704458054988 3.1963154885561043 0 -1 0
30 1 11.25512539367785 14.264917708912096 4.723542350312102 0 0 0
197 1 14.37254303946382 14.205609843085636 4.7762948487411325 0 -1 0
59 1 9.603247151716197 3.1227611432545057 6.368517367287391 0 0 0
60 1 12.780858182453052 3.1220086283684143 6.3650841122315915 0 0 0
181 1 9.607724458519128 6.29084020823335 6.36603151372159 0 0 0
73 1 12.794631003018853 6.272549398529799 6.358182078372126 0 0 0
118 1 9.786608595486413 9.283293504942897 6.315279407330904 0 0 0
194 1 12.778534498660585 9.456463965400584 6.3660056868268295 0 0 0
9 1 8.021676158896822 11.039295590616911 6.77205490444204 0 -1 0
184 1 9.785681609854326 12.797365728261335 6.313708169251491 0 0 0
163 1 12.778641429667728 12.62157996933847 6.36378614968986 0 0 0
34 1 9.608283658402202 15.782534139730833 6.364067569615652 0 -1 0
33 1 12.794634191503082 15.801166048757775 6.358544886588891 0 -1 0
31 1 8.02233264378556 1.5209578783297806 7.950890342412525 0 0 0
69 1 11.194197348050706 1.5482177045389323 7.950911615782951 0 0 0
239 1 14.367583999088287 1.544898766651153 7.950939179612621 0 0 0
92 1 8.022310732293544 4.726061251831753 7.950830651936201 0 0 0
81 1 9.603321931925528 3.1228187166694354 9.533222032327004 0 0 0
94 1 12.780911762497652 3.1220864682843965 9.536673043961379 0 0 0
74 1 11.194758693261052 4.698223942400841 7.950857976060835 0 0 0
75 1 14.367220570713991 4.7023300472877985 7.95089734924557 0 0 0
179 1 8.023515932940276 7.996409782075382 7.950940745094062 0 0 0
99 1 9.607803953485707 6.290883915938554 9.535763464401233 0 0 0
100 1 12.7947296804655 6.272526891218779 9.543583354827186 0 0 0
189 1 11.260895166085469 7.805582603120635 7.950820062407023 0 0 0
190 1 14.372259005467424 7.870624395048429 7.950894468455577 0 0 0
119 1 9.787265506877587 9.282561127953475 9.586979890980421 0 0 0
214 1 12.77846863972565 9.45647748719464 9.535863172578818 0 0 0
223 1 9.786003085008055 12.79807642310755 9.588544587637932 0 0 0
193 1 8.023310547176694 11.039080489683629 9.130797310661187 0 0 0
213 1 12.7786065091267 12.62159177156167 9.538124991484821 0 0 0
222 1 11.0730883563301 11.04014453151462 7.95104707930891 0 0 0
195 1 14.345403428111837 11.03890300498825 7.95093003868085 0 0 0
82 1 9.60833018877211 15.782504399501658 9.537810072647842 0 -1 0
198 1 8.023720201468496 14.08127267141651 7.950909385922609 0 0 0
84 1 12.794784230317958 15.801302151616246 9.543273458579039 0 -1 0
199 1 11.261246806243168 14.270342647495013 7.950887050852058 0 0 0
70 1 14.372132010059266 14.204563775028312 7.950916848617777 0 -1 0
219 1 8.02361658220416 1.5346448699275357 11.117409865855583 0 0 0
83 1 11.195229023590114 1.5488688665225159 11.125198756629798 0 0 0
188 1 14.369650617160719 1.5469220955725416 11.124852545863407 0 0 0
117 1 9.612753958668721 3.1152511789686272 12.705684119435997 0 0 0
91 1 8.023665256601989 4.710797817188024 11.116932416605989 0 0 0
85 1 12.781196665873882 3.111546810505787 12.712750408262801 0 0 0
93 1 11.19633665318307 4.694421206350705 11.12069534116143 0 0 0
95 1 14.368434448963484 4.698211535588859 11.120936265145712 0 0 0
124 1 9.60879249874796 6.277058991312248 12.703290926253112 0 0 0
25 1 8.023617726965329 7.910610206767364 11.125964950524894 0 0 -1
125 1 12.801164151484057 6.263756816315442 12.718847618418367 0 0 0
204 1 11.256210702184003 7.810209828162281 11.17267224284826 0 0 0
205 1 14.37360493146851 7.8696571575846495 11.118730577501932 0 0 0
237 1 9.677015452659509 9.38987770559274 12.761735055372812 0 0 0
230 1 12.790527179737163 9.456034469078348 12.704288339543796 0 0 0
211 1 8.032175274095946 11.048962212069764 11.606473134910383 0 0 0
247 1 9.690372468817676 12.702418781432803 12.776017823773435 0 0 0
212 1 11.161906575130853 11.041393817965425 11.130112311455644 0 0 0
240 1 12.790344346559737 12.632227406863153 12.715789942036075 0 0 0
215 1 14.358544460352679 11.040320409603973 11.118178588584584 0 0 0
107 1 9.618072081827275 15.795179663206078 12.714937682384608 0 -1 0
221 1 8.024669786425353 14.169270904711533 11.12929891159614 0 0 0
249 1 11.255466537178032 14.265218719373271 11.178537029889075 0 0 0
225 1 12.80318820175631 15.809971253260192 12.705520280324029 0 0 0
108 1 14.372705984092951 14.205722997477643 11.125453454614291 0 0 0
106 1 8.023986410069943 1.5466697515842616 14.280936683856616 0 0 0
109 1 11.210922798867937 1.5260434098231102 14.30657837468292 0 0 0
110 1 14.348716506947403 1.524855715880618 14.30976212044709 0 0 0
116 1 8.023034234655055 4.700892900181259 14.282702312743822 0 0 0
228 1 11.193935810307437 4.691972533796483 14.283429472287128 0 0 0
120 1 14.371225747810913 4.692039535613634 14.28493540920604 0 0 0
202 1 8.022645094978246 7.866623993329884 14.287230292651188 0 0 0
173 1 11.22058233897103 7.844039787784879 14.306353399502779 0 0 0
200 1 14.373062788131309 7.868910047849278 14.282996562351666 0 0 0
236 1 8.024905083359586 11.041553688919391 14.324257694096081 0 0 0
238 1 11.200995229365365 11.043084430480326 14.288085630164375 0 0 0
141 1 14.37010063338112 11.04118600124449 14.281576562941812 -1 0 -1
246 1 8.025568500856908 14.20943313089079 14.28711400944566 0 0 0
248 1 11.24906618389895 14.260341278845205 14.341667112285318 0 0 0
250 1 14.351352843634121 14.22226710749298 14.306476093303862 0 0 0

Velocities

2 0 0 0
4 0 0 0
12 0 0 0
11 0 0 0
14 0 0 0
13 0 0 0
15 0 0 0
126 0 0 0
21 0 0 0
127 0 0 0
132 0 0 0
23 0 0 0
131 0 0 0
133 0 0 0
158 0 0 0
46 0 0 0
49 0 0 0
183 0 0 0
134 0 0 0
145 0 0 0
142 0 0 0
1 0 0 0
3 0 0 0
144 0 0 0
146 0 0 0
52 0 0 0
58 0 0 0
38 0 0 0
37 0 0 0
39 0 0 0
185 0 0 0
40 0 0 0
180 0 0 0
151 0 0 0
47 0 0 0
152 0 0 0
48 0 0 0
156 0 0 0
22 0 0 0
160 0 0 0
157 0 0 0
166 0 0 0
168 0 0 0
170 0 0 0
45 0 0 0
26 0 0 0
167 0 0 0
169 0 0 0
232 0 0 0
159 0 0 0
56 0 0 0
57 0 0 0
41 0 0 0
61 0 0 0
62 0 0 0
63 0 0 0
176 0 0 0
177 0 0 0
178 0 0 0
174 0 0 0
182 0 0 0
192 0 0 0
51 0 0 0
196 0 0 0
53 0 0 0
35 0 0 0
67 0 0 0
86 0 0 0
71 0 0 0
66 0 0 0
72 0 0 0
90 0 0 0
96 0 0 0
186 0 0 0
97 0 0 0
187 0 0 0
98 0 0 0
206 0 0 0
208 0 0 0
175 0 0 0
216 0 0 0
191 0 0 0
210 0 0 0
218 0 0 0
220 0 0 0
24 0 0 0
76 0 0 0
78 0 0 0
80 0 0 0
68 0 0 0
77 0 0 0
79 0 0 0
87 0 0 0
111 0 0 0
89 0 0 0
104 0 0 0
115 0 0 0
121 0 0 0
201 0 0 0
122 0 0 0
123 0 0 0
135 0 0 0
231 0 0 0
233 0 0 0
203 0 0 0
243 0 0 0
241 0 0 0
207 0 0 0
209 0 0 0
245 0 0 0
101 0 0 0
217 0 0 0
103 0 0 0
105 0 0 0
244 0 0 0
102 0 0 0
5 0 0 0
113 0 0 0
114 0 0 0
226 0 0 0
235 0 0 0
143 0 0 0
234 0 0 0
242 0 0 0
27 0 0 0
6 0 0 0
8 0 0 0
10 0 0 0
16 0 0 0
17 0 0 0
18 0 0 0
19 0 0 0
20 0 0 0
28 0 0 0
128 0 0 0
129 0 0 0
229 0 0 0
130 0 0 0
29 0 0 0
139 0 0 0
136 0 0 0
147 0 0 0
137 0 0 0
149 0 0 0
140 0 0 0
112 0 0 0
7 0 0 0
148 0 0 0
150 0 0 0
54 0 0 0
44 0 0 0
36 0 0 0
42 0 0 0
64 0 0 0
227 0 0 0
43 0 0 0
65 0 0 0
88 0 0 0
153 0 0 0
50 0 0 0
154 0 0 0
155 0 0 0
55 0 0 0
164 0 0 0
172 0 0 0
161 0 0 0
138 0 0 0
162 0 0 0
165 0 0 0
32 0 0 0
171 0 0 0
224 0 0 0
30 0 0 0
197 0 0 0
59 0 0 0
60 0 0 0
181 0 0 0
73 0 0 0
118 0 0 0
194 0 0 0
9 0 0 0
184 0 0 0
163 0 0 0
34 0 0 0
33 0 0 0
31 0 0 0
69 0 0 0
239 0 0 0
92 0 0 0
81 0 0 0
94 0 0 0
74 0 0 0
75 0 0 0
179 0 0 0
99 0 0 0
100 0 0 0
189 0 0 0
190 0 0 0
119 0 0 0
214 0 0 0
223 0 0 0
193 0 0 0
213 0 0 0
222 0 0 0
195 0 0 0
82 0 0 0
198 0 0 0
84 0 0 0
199 0 0 0
70 0 0 0
219 0 0 0
83 0 0 0
188 0 0 0
117 0 0 0
91 0 0 0
85 0 0 0
93 0 0 0
95 0 0 0
124 0 0 0
25 0 0 0
125 0 0 0
204 0 0 0
205 0 0 0
237 0 0 0
230 0 0 0
211 0 0 0
247 0 0 0
212 0 0 0
240 0 0 0
215 0 0 0
107 0 0 0
221 0 0 0
249 0 0 0
225 0 0 0
108 0 0 0
106 0 0 0
109 0 0 0
110 0 0 0
116 0 0 0
228 0 0 0
120 0 0 0
202 0 0 0
173 0 0 0
200 0 0 0
236 0 0 0
238 0 0 0
141 0 0 0
246 0 0 0
248 0 0 0
250 0 0 0
