LAMMPS data file via write_data, version 22 Jul 2025, timestep = 7561, units = metal

250 atoms
1 atom types

-2.8822924889155365e-06 15.825980882292509 xlo xhi
0 15.825978000000001 ylo yhi
0 15.825978000000001 zlo zhi

Masses

1 183.841

Atoms # atomic

2 1 1.6619013590752125 1.627094008651998 1.4998595197289202 0 0 0
4 1 4.827113015760143 1.6270750043531284 1.5000342590562783 0 0 0
12 1 1.661930747265537 4.792290008525809 1.499975424860026 0 0 0
14 1 4.8271202586270014 4.7922521212967615 1.5001535165508646 0 0 0
126 1 1.6621031956603673 7.957592574176724 1.5000440483513202 0 0 0
158 1 4.8272432492964965 7.9575238300145745 1.500146847144656 0 0 0
132 1 1.662176316667233 11.12279170793555 1.5000102313397488 0 0 0
134 1 4.827360705112924 11.122781158004967 1.5000631172322034 0 0 0
142 1 1.6620175264419836 14.287922639594383 1.499866378389975 0 0 0
144 1 4.827283999701646 14.287948560890145 1.5000144157347561 0 0 0
27 1 1.662019915920308 1.6271018119229643 4.6651286763317135 0 0 0
26 1 0.0794164342839598 0.04455343951355268 3.08246823883267 0 0 0
28 1 3.2445868320257643 0.04448552299357753 3.0825536842084746 0 0 0
58 1 4.827258058797233 1.6270976831192627 4.665240784324408 0 0 0
159 1 6.409882662094453 0.04456321480590062 3.0826670262320697 0 0 0
37 1 1.662077941636286 4.792306494250729 4.665164500470247 0 0 0
36 1 0.07937361816869715 3.2097367613997423 3.0824718133488918 0 0 0
38 1 3.2445065116983214 3.2095801675439963 3.0825617468462077 0 0 0
39 1 4.827219159632303 4.7922998418604825 4.665252715944397 0 0 0
40 1 6.409771730161339 3.20971030872345 3.082698987988515 0 0 0
180 1 0.07947345990955226 6.375009012167264 3.082561866432521 0 0 0
47 1 3.2446177620296406 6.374894667363736 3.082655069204837 0 0 0
48 1 6.409817599366135 6.374955021728675 3.08276639485513 0 0 0
151 1 1.6621579550183603 7.95758157194878 4.665195565509599 0 0 0
156 1 0.07957273418847222 9.540234637099966 3.0825792175384876 0 0 0
152 1 4.82736104540793 7.9575720772705 4.665309963442703 0 0 0
22 1 3.2447690020858744 9.540183905352114 3.082678031132648 0 0 0
160 1 6.409936133086108 9.5401933589447 3.082734264451916 0 0 0
166 1 0.07955681565070723 12.705417960256447 3.0825196387994733 0 0 0
157 1 1.6622289217912756 11.122822774389501 4.665194957167072 0 0 0
168 1 3.2447530750393807 12.705367551362448 3.082580966700107 0 0 0
170 1 4.827442397264255 11.122805851595809 4.6652889002234845 0 0 0
45 1 6.409971464267846 12.705380374308433 3.0826719280588075 0 0 0
167 1 1.6621439179139708 14.287968948047514 4.6651610713310125 0 0 0
169 1 4.8273713145274915 14.287979981175685 4.665222921335074 0 0 0
51 1 0.07955903084501094 0.044661356903498456 6.24773278486615 0 0 0
35 1 1.6622123163754512 1.6272720437566512 7.830390677735111 0 0 0
67 1 4.827390876456533 1.6272705445648814 7.830411039171851 0 0 0
52 1 3.244776902014786 0.044585851935171165 6.247815806866786 0 0 0
53 1 6.409980016854467 0.04463412972199154 6.247835501894766 0 0 0
56 1 0.07954037694936673 3.2098338418708696 6.247735082059889 0 0 0
71 1 1.662199965735819 4.792461992731622 7.830339149758241 0 0 0
57 1 3.2447025078077565 3.2097374405271464 6.247801721183178 0 0 0
72 1 4.827389980952199 4.792487927491023 7.830429683677063 0 0 0
41 1 6.409939058114097 3.2098611890661184 6.247867146840164 0 0 0
61 1 0.07959647615888758 6.37502917395736 6.247710611103594 0 0 0
62 1 3.244793698651045 6.375005471099003 6.247812657187797 0 0 0
63 1 6.409928217852156 6.375010084587115 6.247861996505773 0 0 0
186 1 1.6622374185809414 7.957676648844957 7.830371626779351 0 0 0
176 1 0.07965011184222587 9.540293293941113 6.247756606287207 0 0 0
177 1 3.244867913310302 9.540249860374791 6.247853249576859 0 0 0
187 1 4.8274492308510375 7.957686938582136 7.8304958651519225 0 0 0
178 1 6.410060085034851 9.540278757608759 6.247923162211194 0 0 0
191 1 1.66230642410061 11.12289802398579 7.830370057858463 0 0 0
174 1 0.07967373084946294 12.705479563822768 6.247718284753981 1 0 0
182 1 3.2448745338517258 12.70541466439198 6.247827269210587 0 0 0
192 1 4.827494876568161 11.1228711462346 7.830485083723581 0 0 0
183 1 6.410083199370619 12.705448305904207 6.247890777532722 0 0 0
196 1 1.6622595855902444 14.28806428934646 7.830402381057645 0 0 0
80 1 4.827460672826613 14.288044272232563 7.830458316992685 0 -1 0
76 1 0.07964047720500766 0.04477396557148604 9.412921950429366 0 0 0
78 1 3.2448471784467743 0.04472512788806242 9.413007992914075 0 0 0
68 1 6.410016751315555 0.04473338860035449 9.413042632120192 0 0 0
86 1 0.07959646290703618 3.2099755805457497 9.412928648658196 0 0 0
66 1 3.244811763571739 3.2099315707479366 9.413000901036606 0 0 0
90 1 6.409974409583455 3.2099553886901653 9.41306905022567 0 0 0
96 1 0.07960884949047314 6.3751604788331475 9.412933650454336 0 0 0
97 1 3.244821371687 6.375116987975875 9.413021811719215 0 0 0
98 1 6.410016858027177 6.375150631329643 9.4131227994875 0 0 0
206 1 0.07967891542818918 9.540343108675419 9.41291964310782 0 0 0
208 1 3.2448799995229876 9.54026470049284 9.413024048743797 0 0 0
210 1 6.410095562643 9.54032794163688 9.413133651025946 0 0 0
216 1 0.07969004026529085 12.705541896402785 9.41293806146015 0 0 0
218 1 3.2448848544309676 12.7054816013077 9.413028377307551 0 0 0
220 1 6.410093059614746 12.705522738492546 9.413095955382019 0 0 0
77 1 1.662166740632828 1.62736205314301 10.995565433660168 0 0 0
101 1 0.0794686168744528 0.04469127018943074 12.578036840631032 0 0 0
79 1 4.827357893288998 1.6273529586840183 10.995644435917844 0 0 0
103 1 3.2447157328605187 0.04471871380974208 12.578174082284578 0 0 0
219 1 6.4099207632583 0.04474821530851762 12.578250991077986 0 0 0
87 1 1.6621671190662102 4.792553497277362 10.995574855511707 0 0 0
111 1 0.07945427814918198 3.209985798267863 12.578084700539945 0 0 0
89 1 4.827347075455387 4.792544485857781 10.995677928433878 0 0 0
104 1 3.244662975105583 3.2098884167832353 12.57820967354013 0 0 0
244 1 4.82730903036171 14.288042069547219 14.160799625668524 0 0 0
115 1 6.409863861140276 3.209928118023353 12.578308296065146 0 0 0
121 1 0.07951259554572618 6.375170775286517 12.578129681303318 0 0 0
122 1 3.244718172150258 6.37507928794139 12.578271548085715 0 0 0
123 1 6.409895013456481 6.375100295549059 12.578353160454007 0 0 0
231 1 0.07961313407199097 9.540346864202988 12.578141962240128 0 0 0
201 1 1.6622082330816008 7.95772576622408 10.995592118307528 0 0 0
202 1 4.827405196654938 7.957690487884507 10.995690404086535 0 0 0
233 1 3.244791183410441 9.540264161850091 12.578242033780969 0 0 0
203 1 6.409980130252121 9.540312053443367 12.578315791071047 0 0 0
207 1 1.662263146490508 11.122891065700932 10.995575481769805 0 0 0
241 1 0.0795883854581284 12.705455407398514 12.578069603864254 0 0 0
209 1 4.82745341251707 11.122886149415669 10.995681059055054 0 0 0
243 1 3.2448004223058287 12.705447771240777 12.57818275846578 0 0 0
245 1 6.409996650340444 12.705518780095524 12.5782744152566 0 0 0
217 1 1.6622324094715124 14.288093185893487 10.995536409243122 0 0 0
105 1 4.827418215983116 14.2881142334343 10.995637311524764 0 -1 0
1 1 0.07934350456627885 0.0445771597198561 15.743158445170204 0 0 -1
102 1 1.661946994725642 1.6272187806185898 14.160657419961469 0 0 0
3 1 3.24459322511446 0.04454163775733837 15.743312533490375 0 0 -1
5 1 4.827213132613921 1.627230975598168 14.160833778512739 0 0 -1
146 1 6.4098348947635 0.04463223433037846 15.743431572275218 0 1 -1
113 1 1.6620030405394688 4.792468598666822 14.160753866229232 0 0 0
11 1 0.07932775686819048 3.2098478213473776 15.743234227664772 0 0 -1
13 1 3.2444922410977592 3.209720391388486 15.743397994940386 0 0 -1
114 1 4.82719147002373 4.792420993597969 14.160934878710629 0 0 0
15 1 6.409755527075415 3.2097851126228223 15.743527297032344 0 0 -1
21 1 0.07941879180970803 6.375072229808541 15.743327445368474 0 0 -1
127 1 3.244612823980796 6.374958680688828 15.743496485516555 0 0 -1
23 1 6.40975488772224 6.374940146895199 15.743560227799364 0 0 -1
226 1 1.6621084115409004 7.957658972412588 14.160832146881747 0 0 0
131 1 0.07952971031744906 9.540249247435833 15.743360071334438 0 0 -1
133 1 3.24474042567237 9.540178818061413 15.743464560642945 0 0 -1
235 1 4.82728689846379 7.957607794621638 14.160923597776913 0 0 0
135 1 6.409911263000046 9.540197650538685 15.743495697657373 0 0 -1
232 1 1.6621694368704865 11.122826057737305 14.160763808497341 0 0 0
49 1 0.07948148165874859 12.705379433354569 15.743262459031579 0 0 -1
234 1 4.827369450272044 11.12283346610544 14.160852786624632 0 0 0
143 1 3.2447236908267265 12.705391501951588 15.743376241329877 0 0 -1
145 1 6.409926976968761 12.705431472116185 15.743451657341218 0 0 -1
242 1 1.6620711379085542 14.28799443712321 14.160672981029121 0 0 0
6 1 7.992429662555337 1.6272374239113596 1.5000977004423608 0 0 0
8 1 11.15765542281454 1.6273414444482341 1.4999600153994428 0 0 0
10 1 14.322746555237135 1.627227718888654 1.4997953280251533 0 0 0
16 1 7.992356086796893 4.792394207821522 1.500144213650761 0 0 0
18 1 11.157616586312802 4.792541819313385 1.4999812760034228 0 0 0
20 1 14.32277521340169 4.792481389183629 1.4998890650410257 0 0 0
128 1 7.992444795914198 7.957615038542055 1.5000980087217202 0 0 0
129 1 11.157656996819144 7.957707349282168 1.5000055441852582 0 0 0
70 1 14.32304032142514 14.28815570415035 7.830315049785328 0 -1 0
130 1 14.322880888982157 7.957695861740868 1.4999522619229575 0 0 0
136 1 7.992517125044116 11.122831200279224 1.5000850190858113 0 0 0
137 1 11.15771369447951 11.12286546021075 1.500000454646325 0 0 0
140 1 14.322915692682043 11.12284103712602 1.4999519905913439 0 0 0
112 1 7.992536645103765 14.288038164571317 1.5000524017223609 0 0 0
148 1 11.157698854013645 14.288079576493315 1.4999733691847794 0 0 0
150 1 14.322831218433151 14.288000812991116 1.4998535835684192 0 0 0
54 1 7.992491782065873 1.6272430538811076 4.665247574644336 0 0 0
32 1 9.575121922840614 0.04470447787641617 3.082620409626283 0 0 0
224 1 12.740293258887883 0.04472553114258739 3.0824890985515774 0 0 0
44 1 11.157734273013661 1.6273537125026434 4.665162121996781 0 0 0
185 1 14.322881142988823 1.6272518772055258 4.665090990698397 0 1 0
42 1 9.575051643525168 3.2098932101346827 3.0826545367920994 0 0 0
64 1 7.992466610063584 4.792462956044097 4.665296817722794 0 0 0
227 1 12.740239718301442 3.2099036626844506 3.082492361542268 0 0 0
43 1 11.157711483091969 4.79255464902781 4.6651817425949265 0 0 0
46 1 14.322914290690843 4.792478413627686 4.665099595092653 -1 0 0
88 1 9.575050618178766 6.3750776726455 3.082675366732481 0 0 0
50 1 12.740266806561912 6.375113333539973 3.082551732894659 0 0 0
55 1 9.575120405544077 9.540237518628471 3.082661502518979 0 0 0
153 1 7.992562066557862 7.957661318064166 4.665325120583638 0 0 0
154 1 11.157754362358164 7.957704692935923 4.665223042188272 0 0 0
164 1 12.740337144710477 9.540289284805905 3.082557448253947 0 0 0
155 1 14.322968082301687 7.957677878297629 4.66513646270273 0 0 0
172 1 9.575169001402308 12.70545823228964 3.0826136802481323 0 0 0
161 1 7.992618999733064 11.12283780043806 4.665289532250339 0 0 0
138 1 12.740325529544997 12.70545326271019 3.082531571089397 0 0 0
162 1 11.157815524332726 11.122906865302285 4.665189720086149 0 0 0
165 1 14.323000268338252 11.122884417889123 4.665135434647553 0 0 0
171 1 7.992594228334434 14.288036052974615 4.665244636471184 0 0 0
30 1 11.1577932841061 14.288108952480544 4.665154239096743 0 0 0
197 1 14.322937910113348 14.288062318514333 4.66508909778644 0 -1 0
34 1 9.575207020474531 0.0447352911057247 6.247784781544931 0 0 0
31 1 7.992583378312916 1.6273471628153484 7.830425077947542 0 0 0
69 1 11.157801672437051 1.6274278407417173 7.830350588103211 0 0 0
33 1 12.740383000666238 0.044779029172846166 6.247704246606933 0 0 0
239 1 14.322976140292937 1.6273680991692425 7.8303355743600775 0 0 0
59 1 9.575166779489864 3.2099615091166958 6.247823405889558 0 0 0
73 1 7.992594349163418 4.792549497645829 7.830488343400307 0 0 0
60 1 12.740347978880758 3.209974154745142 6.247737875847937 0 0 0
74 1 11.157794575049095 4.792601297912534 7.830388743841722 0 0 0
75 1 14.322982937295231 4.792547380750879 7.83032698725257 0 0 0
181 1 9.575195147996054 6.375154941952798 6.2478735066698805 0 0 0
65 1 12.740401402732914 6.375159413792314 6.2477573951426795 0 0 0
198 1 7.992675154861365 14.28813554524241 7.830450674641109 0 0 0
118 1 9.575275927201197 9.540340264266147 6.247878968906377 0 0 0
222 1 11.157914427039383 11.123032054286218 7.830368850226303 0 0 0
194 1 12.740457126919807 9.5403577005731 6.247757217860081 0 0 0
190 1 14.323057957248672 7.957763641155286 7.830336645113751 0 0 0
195 1 14.323099229158059 11.122970838059896 7.8303156191008725 0 0 0
184 1 9.575277229591453 12.705522145533 6.247826192384704 0 0 0
163 1 12.74045834404286 12.70554845555214 6.2477481982697896 0 0 0
189 1 11.157851122162837 7.957811001892591 7.830414409563867 0 0 0
199 1 11.157848659606229 14.288206552532424 7.830335194090896 0 0 0
193 1 7.992716493568113 11.122912946934331 7.830505523570849 0 0 0
179 1 7.992671043068557 7.95780326133478 7.8305330167293015 0 0 0
82 1 9.575194579258692 0.044825109863107074 9.412979085895817 0 0 0
84 1 12.740413022551577 0.04483383523612997 9.412906954523791 0 0 0
92 1 9.57513962697756 3.2100117931094267 9.412998195183114 0 0 0
94 1 12.740366547556958 3.210017504464766 9.412933747839121 0 0 0
99 1 9.575212520863088 6.3752292191608 9.413068816440513 0 0 0
100 1 12.740402840294005 6.375237785106407 9.412970930871078 0 0 0
212 1 11.157887666984902 11.123076294872227 10.995596684838755 0 0 0
119 1 9.57532984710928 9.540427691931992 9.413101533656922 0 0 0
214 1 12.740475183683477 9.540419602877972 9.412903153350776 0 0 0
223 1 9.575271547137223 12.70563051877847 9.41300809411422 0 0 0
107 1 9.575121194497694 0.04483008897855236 12.57820769225892 0 0 0
81 1 7.992537903743527 1.6274026069684686 10.99565343184954 0 0 0
83 1 11.157719674002905 1.6274449505567286 10.995539206203496 0 0 0
109 1 12.74026546290122 0.04479719479213735 12.578052689446116 0 0 0
188 1 14.322926069850114 1.6274144723522785 10.995480730832467 0 0 0
117 1 9.575064771452471 3.209987303200444 12.578227120599776 0 0 0
85 1 12.740236672442808 3.210020952690993 12.578081706365017 0 0 0
93 1 11.157712656516539 4.7926397194193315 10.9955831165111 0 0 0
95 1 14.32292279349887 4.7926317107297205 10.995500774375179 0 0 0
25 1 9.575110987838295 6.375196630201883 12.578249408819994 0 0 -1
125 1 12.740279170469762 6.375261889742185 12.578117418700298 0 0 0
237 1 9.575139274787546 9.540392276026521 12.57822630384874 0 0 0
248 1 11.157678556162299 14.288154313246176 14.160732572677897 0 0 0
204 1 11.157792973983636 7.957882875676981 10.995601291636177 0 0 0
230 1 12.74038475222464 9.540425791942184 12.578154190629247 0 0 0
205 1 14.322994537499584 7.957819641064922 10.995502383215275 0 0 0
211 1 7.992640999921666 11.123009207317082 10.995695145402896 0 0 0
247 1 9.575201245356475 12.705602572931523 12.578203156631915 0 0 0
213 1 12.74050170542824 12.705662039027231 9.412883549761926 0 0 0
240 1 12.740343001509737 12.705570165373064 12.57806139273547 0 0 0
215 1 14.322997850871758 11.1229700049828 10.99549464183902 0 0 0
221 1 7.992599819271172 14.288194555458961 10.995634284986133 0 0 0
249 1 11.157782340952723 14.28819518369776 10.995530325780505 0 0 0
225 1 14.323002910107727 14.288182373334198 10.995457323725768 0 0 0
106 1 7.99244074839178 1.6273300371903818 14.1608860626783 0 0 0
7 1 9.575055443648495 0.044733856321593324 15.743415495288279 0 0 -1
108 1 11.157638942452946 1.6273850254280025 14.16073748243823 0 0 0
9 1 12.740208665437157 0.044671623281898165 15.74321732760568 0 0 -1
110 1 14.322766203735775 1.6273135764322353 14.160606199622586 0 0 0
116 1 7.992394241111581 4.792491888115657 14.160919102756935 0 0 0
17 1 9.574986010310145 3.209928137587954 15.743447175742986 0 0 -1
19 1 12.740182214081827 3.209973718464289 15.743262196711258 0 0 -1
120 1 14.322792881738112 4.792593452016921 14.160670359895091 0 0 0
124 1 11.157613166482482 4.792610872467352 14.160752273870585 0 0 0
250 1 14.322849289547282 14.288050098674525 14.160616994455093 0 0 0
229 1 12.740209717159969 6.375170686782107 15.74331429409744 0 0 0
228 1 7.992464603625736 7.957675717484988 14.160932800121964 0 0 0
29 1 9.575067120411278 9.540291805044982 15.743433979109206 0 0 0
173 1 11.157663390258154 7.957790465537025 14.160776589752254 0 0 0
200 1 14.322883930115436 7.957768596964523 14.160714452084672 0 0 0
236 1 7.992540913240835 11.122920722335117 14.160871122937266 0 0 0
147 1 9.57512676587596 12.705502533769318 15.743420753954416 0 0 -1
149 1 12.740269464854421 12.70545133509287 15.743306089234927 0 0 -1
238 1 11.157727787972958 11.12296352213908 14.160742747647625 0 0 0
141 1 14.322932882142933 11.122902484379056 14.160700231374964 -1 0 -1
246 1 7.992521170720835 14.288124238659941 14.160834498743341 0 0 0
175 1 7.99261098816996 7.957791917805777 10.995691822055662 0 0 0
139 1 12.740294060099602 9.540332762565594 15.743346230655131 0 0 -1
24 1 9.574996615445041 6.375101376050427 15.743444367343274 0 0 -1
91 1 7.992524260948955 4.79257245998172 10.995682367326724 0 0 0

Velocities

2 0 0 0
4 0 0 0
12 0 0 0
14 0 0 0
126 0 0 0
158 0 0 0
132 0 0 0
134 0 0 0
142 0 0 0
144 0 0 0
27 0 0 0
26 0 0 0
28 0 0 0
58 0 0 0
159 0 0 0
37 0 0 0
36 0 0 0
38 0 0 0
39 0 0 0
40 0 0 0
180 0 0 0
47 0 0 0
48 0 0 0
151 0 0 0
156 0 0 0
152 0 0 0
22 0 0 0
160 0 0 0
166 0 0 0
157 0 0 0
168 0 0 0
170 0 0 0
45 0 0 0
167 0 0 0
169 0 0 0
51 0 0 0
35 0 0 0
67 0 0 0
52 0 0 0
53 0 0 0
56 0 0 0
71 0 0 0
57 0 0 0
72 0 0 0
41 0 0 0
61 0 0 0
62 0 0 0
63 0 0 0
186 0 0 0
176 0 0 0
177 0 0 0
187 0 0 0
178 0 0 0
191 0 0 0
174 0 0 0
182 0 0 0
192 0 0 0
183 0 0 0
196 0 0 0
80 0 0 0
76 0 0 0
78 0 0 0
68 0 0 0
86 0 0 0
66 0 0 0
90 0 0 0
96 0 0 0
97 0 0 0
98 0 0 0
206 0 0 0
208 0 0 0
210 0 0 0
216 0 0 0
218 0 0 0
220 0 0 0
77 0 0 0
101 0 0 0
79 0 0 0
103 0 0 0
219 0 0 0
87 0 0 0
111 0 0 0
89 0 0 0
104 0 0 0
244 0 0 0
115 0 0 0
121 0 0 0
122 0 0 0
123 0 0 0
231 0 0 0
201 0 0 0
202 0 0 0
233 0 0 0
203 0 0 0
207 0 0 0
241 0 0 0
209 0 0 0
243 0 0 0
245 0 0 0
217 0 0 0
105 0 0 0
1 0 0 0
102 0 0 0
3 0 0 0
5 0 0 0
146 0 0 0
113 0 0 0
11 0 0 0
13 0 0 0
114 0 0 0
15 0 0 0
21 0 0 0
127 0 0 0
23 0 0 0
226 0 0 0
131 0 0 0
133 0 0 0
235 0 0 0
135 0 0 0
232 0 0 0
49 0 0 0
234 0 0 0
143 0 0 0
145 0 0 0
242 0 0 0
6 0 0 0
8 0 0 0
10 0 0 0
16 0 0 0
18 0 0 0
20 0 0 0
128 0 0 0
129 0 0 0
70 0 0 0
130 0 0 0
136 0 0 0
137 0 0 0
140 0 0 0
112 0 0 0
148 0 0 0
150 0 0 0
54 0 0 0
32 0 0 0
224 0 0 0
44 0 0 0
185 0 0 0
42 0 0 0
64 0 0 0
227 0 0 0
43 0 0 0
46 0 0 0
88 0 0 0
50 0 0 0
55 0 0 0
153 0 0 0
154 0 0 0
164 0 0 0
155 0 0 0
172 0 0 0
161 0 0 0
138 0 0 0
162 0 0 0
165 0 0 0
171 0 0 0
30 0 0 0
197 0 0 0
34 0 0 0
31 0 0 0
69 0 0 0
33 0 0 0
239 0 0 0
59 0 0 0
73 0 0 0
60 0 0 0
74 0 0 0
75 0 0 0
181 0 0 0
65 0 0 0
198 0 0 0
118 0 0 0
222 0 0 0
194 0 0 0
190 0 0 0
195 0 0 0
184 0 0 0
163 0 0 0
189 0 0 0
199 0 0 0
193 0 0 0
179 0 0 0
82 0 0 0
84 0 0 0
92 0 0 0
94 0 0 0
99 0 0 0
100 0 0 0
212 0 0 0
119 0 0 0
214 0 0 0
223 0 0 0
107 0 0 0
81 0 0 0
83 0 0 0
109 0 0 0
188 0 0 0
117 0 0 0
85 0 0 0
93 0 0 0
95 0 0 0
25 0 0 0
125 0 0 0
237 0 0 0
248 0 0 0
204 0 0 0
230 0 0 0
205 0 0 0
211 0 0 0
247 0 0 0
213 0 0 0
240 0 0 0
215 0 0 0
221 0 0 0
249 0 0 0
225 0 0 0
106 0 0 0
7 0 0 0
108 0 0 0
9 0 0 0
110 0 0 0
116 0 0 0
17 0 0 0
19 0 0 0
120 0 0 0
124 0 0 0
250 0 0 0
229 0 0 0
228 0 0 0
29 0 0 0
173 0 0 0
200 0 0 0
236 0 0 0
147 0 0 0
149 0 0 0
238 0 0 0
141 0 0 0
246 0 0 0
175 0 0 0
139 0 0 0
24 0 0 0
91 0 0 0
