LAMMPS data file via write_data, version 22 Jul 2025, timestep = 29250, units = metal

250 atoms
1 atom types

-0.04650867325732452 15.872486673257363 xlo xhi
0 15.825978000000001 ylo yhi
0 15.825978000000001 zlo zhi

Masses

1 183.841

Atoms # atomic

11 1 1.7844100862386156 1.3990695859675422 1.5026722409209072 0 0 0
4 1 4.958087212905003 1.3946679484156186 1.4865036431368737 0 0 0
116 1 1.8079186638040552 4.587692612145823 1.5264892039675853 0 0 0
14 1 4.9600743571008525 4.556941765316669 1.487576065458842 0 0 0
126 1 1.74557548629226 7.736987092156366 1.4789210945430538 0 0 0
132 1 4.913511518858981 7.687247359283501 1.4450291440560667 0 0 0
46 1 1.7808774634040363 10.899309305701534 1.4859699376930346 -1 0 0
134 1 4.941375812668332 10.89312776983452 1.4767498794330651 0 0 0
142 1 1.7624549188738508 14.052489024281323 1.4962837203751804 0 0 0
83 1 4.944447258505966 14.06253065486309 1.4838808160868706 0 0 0
52 1 1.7662938305721234 1.3969353755514289 4.66286372712454 0 0 0
58 1 4.948156559097311 1.3974453006972087 4.654315518725255 0 0 0
37 1 1.7687653028503443 4.56054324409364 4.663241667347685 0 0 0
38 1 0.19035767294945494 2.983777594119315 3.0920677458857164 0 0 0
39 1 4.951887443179357 4.5599419080468735 4.656689744326632 0 0 0
185 1 3.3687398427243527 2.9783850389085176 3.0849725499796072 0 1 0
40 1 6.543745411680498 2.97986120029636 3.0696233516758067 0 0 0
180 1 0.21101344018939305 6.192265460502041 3.1173455396734564 0 0 0
151 1 1.7161883687256505 7.705949592327338 4.618363733556914 1 0 0
47 1 3.3706955713988864 6.152045462085416 3.0869925948284513 0 0 0
152 1 4.94103823600248 7.714534985294001 4.652857723164998 0 0 0
48 1 6.538288225449599 6.12886602837014 3.062236344023633 0 0 0
156 1 0.14660871706533357 9.345295730179995 3.050487170985066 0 0 0
22 1 3.3140788323131183 9.290722427728966 3.0407972885035552 0 0 0
160 1 6.406842372989947 9.174076391773486 2.9377770065694895 0 0 0
166 1 0.1544826186388274 12.461337057470676 3.0577645222283487 0 0 0
176 1 1.7349531360993269 10.896417327134479 4.637158020687176 0 0 0
170 1 4.887692840592384 10.848593022449192 4.602664162460368 0 0 0
232 1 3.3390436523133924 12.476317676628105 3.0638542725935918 0 0 0
45 1 6.516590622633247 12.484242096235818 3.048015944205509 0 0 0
19 1 7.864214029917226 10.632510534515669 4.383723507459706 0 0 0
26 1 0.18405902089899231 15.635085470484965 3.0876001542161724 0 -1 0
167 1 1.7512079959221811 14.055193595345335 4.649850968962522 0 0 0
169 1 3.3572885533420753 15.640728727798193 3.072601726949152 0 0 0
192 1 4.931796345171579 14.055505340003423 4.642806210930923 0 0 0
159 1 6.535100646468465 15.648299046614003 3.062094285250604 0 -1 0
51 1 1.7709612192572206 1.4035783652812657 7.8330571001441 0 0 0
227 1 4.939609312064464 1.4122560546679372 7.821050849534336 0 0 0
71 1 1.7756815608949903 4.574819959793799 7.82332303787934 0 0 0
56 1 0.18107366328123722 2.986916961672386 6.239605209926262 0 0 0
72 1 4.950244672154221 4.567435832643554 7.825492451135892 0 0 0
57 1 3.3575102528259233 2.982022509074176 6.238435558630707 0 0 0
41 1 6.534614975936905 2.989497570051738 6.233621375310983 0 0 0
186 1 1.7574986957020324 7.722995359822752 7.830140733625664 0 0 0
75 1 0.1730519444790915 6.153166926486185 6.254011468721111 1 0 0
62 1 3.348761011198388 6.132969507886561 6.234915019103632 0 0 0
178 1 4.92737309129811 7.7081290054114655 7.809376891263213 0 0 0
63 1 6.538672678616921 6.1424537027346116 6.236340618490844 0 0 0
61 1 0.1511700902231222 9.304149718096173 6.230619942245882 0 0 0
177 1 3.2199804710319 9.18689875713537 6.1116931836641335 0 0 0
210 1 6.534544186713246 9.28499561412443 6.238390514277884 0 0 0
191 1 1.7391844672116081 10.875860859181534 7.805517677751684 0 0 0
174 1 0.17136387382852908 12.484070666986772 6.24199806841604 1 0 0
121 1 4.676720597462663 10.637601408532957 7.571612596694469 0 0 0
182 1 3.3256728166590253 12.480810709184054 6.217248926923862 0 0 0
9 1 6.468454165970118 12.406617300200416 6.168735144685006 0 -1 0
97 1 1.7595706005805536 14.06703400648591 7.829151516941089 0 0 0
78 1 0.1714927938837 15.642554753326339 6.249336820858795 1 -1 0
196 1 3.342619565365072 15.649850642969989 6.232693649714466 0 0 0
80 1 4.913307272104393 14.103458457828475 7.798644437891562 0 -1 0
34 1 6.525535785753593 15.644390990076786 6.22667060694985 0 -1 0
86 1 0.21055699272078812 3.0122444040810867 9.365527542770485 0 0 0
35 1 3.3672504862858768 2.9910960453173425 9.3857927296646 0 0 0
90 1 6.526892904118667 2.9972912361017907 9.413331763011492 0 0 0
222 1 0.18808574386978846 6.146551610622426 9.421963330988511 0 0 0
187 1 3.3612500562938483 6.136871187454599 9.415977690808754 0 0 0
98 1 6.5341166903103085 6.140614639491201 9.40931811998154 0 0 0
190 1 0.1718178060812011 9.306916996934124 9.411863977601701 1 0 0
208 1 3.339950662090189 9.293156780945809 9.421589573151172 0 0 0
179 1 6.518129738313644 9.294897212002331 9.381790684733486 0 0 0
216 1 0.17675709697242958 12.478859080283167 9.41288024293902 0 0 0
218 1 3.3319942371906226 12.451622452663742 9.378033388503958 0 0 0
220 1 6.110960307680733 12.076625995859454 8.975198688326577 0 0 0
24 1 0.22139598864025195 15.688569553541686 9.460155759032022 0 -1 -1
76 1 3.3546316756728127 15.660832447289765 9.419877647451283 0 -1 0
221 1 7.521607440656702 13.463510071308091 10.404871410431287 0 0 0
68 1 6.521135745899115 15.70094931339789 9.406938077522739 0 -1 0
77 1 1.8437783035840603 1.455875298984276 11.051877305490795 0 0 0
67 1 4.932232847197199 1.4243617454306905 11.009376758462983 0 0 0
87 1 1.8052376878526106 4.557776845913946 11.006396471139443 0 0 0
111 1 0.39068036338146755 3.257634662794404 12.84644496528345 0 0 0
66 1 4.936490380960476 4.549590956222229 11.008064096150381 0 0 0
140 1 6.556642887244477 2.9898435109739063 12.567652879368783 0 0 0
125 1 0.20637474068388592 6.155550043332008 12.600924385913917 1 0 0
201 1 1.7672274036847542 7.724525379053574 10.997821355213318 0 0 0
123 1 4.95445054684474 7.7231271629507985 10.98326107401265 0 0 0
157 1 3.3750844500837434 6.180472690866229 12.56525835693018 0 0 0
129 1 6.5419079567530956 6.1377968113227315 12.566752017263303 0 0 0
231 1 0.18263418435926262 9.31064812975566 12.584090304033209 0 0 0
233 1 3.358686690815445 9.313147486404047 12.576682696994288 0 0 0
25 1 6.5461929040334805 9.304489828602703 12.568180258135502 0 0 -1
243 1 1.765307297615023 10.890708167880572 10.991847589365474 0 0 0
241 1 0.19183161965140133 12.465824653193676 12.591235890435478 1 0 0
207 1 3.359583098342404 12.4701945905591 12.575508304443705 0 0 0
209 1 4.946100188231912 10.886712830609286 11.02348128521877 0 0 0
245 1 6.548563110581935 12.476829688318245 12.638542370465217 0 0 0
168 1 0.23665036388117697 15.592110678725145 12.626213210533514 0 -1 0
217 1 1.7756159057077154 14.059495173362457 10.993847617867898 0 0 0
79 1 3.3688777814205113 15.610851743546288 12.577980576489951 0 -1 0
105 1 4.91306255706267 14.039440113190336 10.960113007097362 0 -1 0
244 1 6.506008234849552 15.62136164878132 12.534301753223337 0 0 0
102 1 1.8166453198481773 1.4183844484123678 14.154225141883481 0 0 0
5 1 4.928259945467455 1.4162408089881768 14.126970347857487 0 0 -1
113 1 1.9423741889170085 4.665246858460083 14.255153385784299 0 0 0
110 1 0.24971345604026632 3.028103400483954 15.780586149885268 1 0 0
114 1 4.951014283247183 4.552442789519754 14.13780901316428 0 0 0
13 1 3.3845517586188385 2.9773412382412903 15.771907276742624 0 0 -1
15 1 6.530679802341322 2.9818889914359192 15.725981318435839 0 0 -1
12 1 0.19829276952279468 6.157578467222237 15.730134672499704 0 0 -1
122 1 1.773875696517017 7.754486733442469 14.169203958921504 0 0 0
127 1 3.4014093818828655 6.177548614364745 15.762225070957033 0 0 -1
235 1 4.956452630481993 7.722481008961947 14.141395097120798 0 0 0
135 1 6.55153660027736 6.137534647845501 15.72358615905038 0 0 -1
131 1 0.16101861775249185 9.336447369600837 15.75877952213072 0 0 -1
133 1 3.35543176281645 9.31827908818088 15.732141690432904 0 0 -1
158 1 6.538627071929765 9.298105757729887 15.714453147077055 0 0 -1
49 1 0.16636248477448148 12.458523114857272 15.765525362602538 0 0 -1
143 1 1.7632263007761946 10.895238469646468 14.16878398510828 0 0 -1
203 1 4.9488332563334625 10.889652523619244 14.160982020087076 0 0 0
234 1 3.3595725125793265 12.478982100307054 15.73640277258003 0 0 0
145 1 6.546888745831389 12.478662286253277 15.734576531681167 0 0 -1
242 1 1.7823018098725893 14.044060135816116 14.182600646685335 0 0 0
1 1 0.2051031387000758 15.647030015836918 15.750521575964697 0 -1 -1
27 1 4.956489268928313 14.065111491356548 14.156335163615648 0 0 0
3 1 3.368236632502798 15.649680096998669 15.732358917134045 0 -1 -1
144 1 6.536676704151526 15.645917869498891 15.726364540100219 0 0 -1
6 1 8.13565707661865 1.4013043810177397 1.4905349962722358 0 0 0
8 1 11.354463249693037 1.424229137965826 1.5142494912138211 0 0 0
10 1 14.540450601864192 1.389609173812966 1.5247405840310473 0 0 0
17 1 8.134285420536951 4.561065470972771 1.4885850968726921 0 0 0
18 1 11.297479088422426 4.5877439502498305 1.5133743579929344 0 0 0
228 1 13.1559996481529 3.2255865726980346 0.22158312988866824 0 0 1
20 1 14.643166939593044 4.70105364850352 1.622211468315935 0 0 0
128 1 8.141330767421925 7.720199011074909 1.480971315551037 0 0 0
229 1 11.331853038145763 7.743216560035459 1.4954772347349594 0 0 1
130 1 14.513997040117532 7.727134404632592 1.501599939419999 0 0 0
136 1 8.113218292081125 10.870753283148959 1.4747308386953246 0 0 0
137 1 11.297857102890356 10.88978154402658 1.4935223572208107 0 0 0
112 1 8.13466539327106 14.05958036601665 1.4888197663321467 0 0 0
148 1 11.333862524016006 14.04182890014234 1.502443112393562 0 0 0
150 1 14.517416656532475 14.072045289015437 1.5073900078224816 0 0 0
54 1 8.128853748539314 1.4112048228269736 4.646447612643013 0 0 0
44 1 11.322647124811182 1.4042530661178187 4.657544063159043 0 0 0
103 1 14.502795675223775 1.3964826207869796 4.664608653004784 -1 -1 0
42 1 9.73115171361935 2.98483320525982 3.07539453483915 0 0 0
64 1 8.133972942398387 4.56472993756487 4.653016899177059 0 0 0
200 1 11.31998591164484 4.572525538595394 4.663246241402264 0 0 0
36 1 12.933226268107411 3.0040547044194343 3.0970309915312986 -1 0 0
65 1 14.51086425346635 4.577887472516383 4.679415793142454 0 0 0
88 1 9.724199353518577 6.151444440069148 3.076461227192807 0 0 0
161 1 8.118190476029914 7.712787225021771 4.63556320388884 0 0 0
50 1 12.90852228055646 6.159866076340082 3.0847199438603528 0 0 0
154 1 11.323730514641767 7.736815413175206 4.65126569693445 0 0 0
155 1 14.48913294310012 7.740874762449639 4.650126364946625 0 0 0
55 1 9.747647581483593 9.30169194666196 3.0658624652170867 0 0 0
164 1 12.937106283831826 9.331574115245173 3.050022964451927 0 0 0
172 1 9.704728289592024 12.45039581706487 3.049441670733354 0 0 0
162 1 11.387168955032942 10.887591535307143 4.6394160010416385 0 0 0
138 1 12.935539040692557 12.457502415119801 3.054091773921411 0 0 0
165 1 14.507780508573411 10.895624284168262 4.672800407736851 0 0 0
32 1 9.731434727894543 15.646684883823355 3.070843107140376 0 -1 0
171 1 8.111487557720471 14.09690600163086 4.630342165999629 0 0 0
224 1 12.915467010424683 15.63685236442901 3.0821508499454136 0 -1 0
30 1 11.303774851996923 14.02775786273982 4.610268686244088 0 0 0
197 1 14.503539099827599 14.054506808091261 4.654357117619845 0 -1 0
31 1 8.103479662854687 1.4254507249285355 7.797513938907613 0 0 0
91 1 11.33138565196822 1.4461394607544606 7.8373289000616895 0 0 0
239 1 14.501616379976541 1.4018226701862606 7.779795812479559 0 0 0
59 1 9.725184591037815 2.9965430027479036 6.235405424168073 0 0 0
92 1 8.128819549520589 4.575184597729044 7.818967666619811 0 0 0
60 1 12.91170404231832 2.9890344380209584 6.242733648820912 0 0 0
74 1 11.320250710213042 4.576796943975915 7.82589622336778 0 0 0
206 1 14.506152689894854 4.574181945527754 7.829231468759582 0 0 0
175 1 8.131408035148585 7.7297664580146925 7.82211773396175 0 0 0
181 1 9.72364387599641 6.152253714226812 6.23680854804485 0 0 0
43 1 12.908997216474674 6.1536720663025495 6.246406576321313 0 0 0
70 1 14.528757153572563 14.099988452728295 7.871468990234407 0 -1 0
73 1 14.499688917700672 7.728249561131784 7.831045899761083 0 0 0
118 1 9.708366126796774 9.295616013246573 6.212722390808379 0 0 0
194 1 12.91029243281478 9.30804157002436 6.239470076152161 0 0 0
184 1 9.31784248947997 12.056635240847402 5.7799434061988055 0 0 0
193 1 8.19878060041639 10.902158219125697 7.872412274126987 0 0 0
214 1 11.312048136964762 10.866326295863418 7.809919337764327 0 0 0
163 1 12.974525810751844 12.486129877067889 6.248210439282142 0 0 0
195 1 14.504793614712183 10.892123557978026 7.832032933902776 0 0 0
198 1 8.039429237017353 13.983349845168217 7.733807825945979 0 0 0
69 1 9.717870325728647 15.69234502898025 6.232794149590176 0 -1 0
33 1 12.877065769871187 15.612370735816208 6.220556545263945 0 -1 0
199 1 10.719145663112275 13.451497700551473 7.209070396363215 0 0 0
189 1 11.31494506539157 7.729687478285338 7.823684629013313 0 0 0
84 1 13.489868966789585 0.4262367244718392 10.010631325717862 0 0 0
53 1 9.706958631971501 2.997670288482778 9.387761530456896 0 -1 0
94 1 12.935947555566305 3.015987609004446 9.424014693278284 0 0 0
99 1 9.726628956782701 6.152168955068627 9.406744373684635 0 0 0
104 1 8.13518551710065 7.726262795478125 10.984501185154715 0 0 0
100 1 12.917912028977447 6.149220186140659 9.417239094230325 0 0 0
119 1 9.738022893128905 9.315804643320533 9.416802200359916 0 0 0
205 1 12.913593539495528 9.301974782470776 9.413270967709328 0 0 0
223 1 9.853557656546627 12.560800151569655 9.541322513407875 0 0 0
213 1 12.906237319562182 12.43466870452778 9.403452554368148 0 0 0
82 1 9.582556405812399 15.59104204926851 9.257598867584248 0 -1 0
16 1 12.05748402326078 14.842802443049967 8.664571669208703 0 0 0
107 1 8.134297621928635 1.447371991096591 11.001071258468865 0 0 0
120 1 11.16691034419875 1.31545202219706 10.883460883638826 0 0 0
188 1 15.01774605305677 1.7552990533077224 11.372703823806091 0 0 0
81 1 8.132732580389746 4.5739481967332445 10.988925421956385 0 0 0
106 1 9.751098709887621 3.003764618335965 12.587349020710416 0 0 0
23 1 12.916124928702509 2.9633181264577204 12.470270430163785 0 0 0
93 1 11.317694235668975 4.5592457744791455 10.984621133201763 0 0 0
96 1 14.550273902051682 4.585054721821197 11.015321701134459 -1 0 0
124 1 9.737262253849652 6.146482928364625 12.575512642932962 0 0 0
183 1 12.921327168002012 6.145477189757699 12.578635031403557 0 0 1
204 1 11.324840158690941 7.724068900529327 10.99622482757269 0 0 0
89 1 14.511270832679166 7.727408900659632 11.003292029101694 0 0 0
237 1 9.733338086157298 9.3026444992262 12.575567620575535 0 0 0
230 1 12.921093104224756 9.30245985571686 12.588852530665024 0 0 0
211 1 8.122058116914262 10.866240678239652 10.976614271024808 0 0 0
247 1 9.718464388563442 12.437554414238587 12.567246764844787 0 0 0
212 1 11.342724100526786 10.8817751727974 11.016326313988891 0 0 0
240 1 12.945193407507963 12.45554388089264 12.611743936041881 0 0 0
215 1 14.51234804904719 10.883743863031023 10.997820428082031 0 0 0
248 1 8.978827655800767 14.863401999227383 11.732648216195216 0 0 0
249 1 11.459315729802265 14.113294441960806 11.146840861158795 0 0 0
225 1 13.01316372678052 15.713006563859548 12.679372309209601 0 0 0
108 1 14.520468926798632 14.02663246616955 11.012425039000677 0 0 0
7 1 10.31639904893154 0.40021251797725366 13.217559853296274 0 0 -1
219 1 8.060740952677518 1.3918528646307744 14.142787737464795 0 0 0
85 1 11.783361394196199 1.8236910959075054 14.551130177772968 0 0 0
2 1 14.59579975277099 1.4660715057179368 14.224163636350946 0 0 0
153 1 8.138233305941364 4.563963906338213 14.151293547876401 0 0 0
146 1 9.701280043122033 2.974163809518432 15.731579731440782 0 1 -1
117 1 11.348743926781266 4.578294219753998 14.177595254539197 0 0 0
95 1 14.479497864939757 4.596274528707751 14.189509761510614 0 0 0
202 1 8.142264423688395 7.722813889328177 14.147310327240822 0 0 0
28 1 9.733867913695564 6.147068633461022 15.735256367304931 0 0 -1
21 1 12.924759624280844 6.178317455728852 15.765101616055023 -1 0 -1
173 1 11.335167171505041 7.734668726192667 14.166990443676543 0 0 0
226 1 14.511775395718622 7.744790622516564 14.174014515154342 -1 0 0
29 1 9.734908558721319 9.304334598072542 15.733975702822933 0 0 0
139 1 12.93468302370354 9.334091860524646 15.764462530183618 0 0 -1
236 1 8.142653461269113 10.885926436755463 14.15811638600811 0 0 0
147 1 9.733080578068202 12.468345616782944 15.742190000003937 0 0 -1
238 1 11.336253767685141 10.8816999497235 14.175052202914797 0 0 0
149 1 12.94619936762185 12.437783523382459 15.781429758712163 0 0 -1
141 1 14.51574284927634 10.887052141674383 14.153287696147375 -1 0 -1
246 1 8.17138180719715 14.086729505954649 14.181041898190198 0 0 0
109 1 9.756669809871317 15.658092057411265 15.789636275500655 0 -1 0
115 1 11.347790013264845 13.99260726208899 14.186011918691031 0 0 0
250 1 12.93770189221352 15.606105028902782 15.766096408050947 0 0 0
101 1 14.526788807988625 14.045512144611708 14.192191894127705 -1 -1 0

Velocities

11 0 0 0
4 0 0 0
116 0 0 0
14 0 0 0
126 0 0 0
132 0 0 0
46 0 0 0
134 0 0 0
142 0 0 0
83 0 0 0
52 0 0 0
58 0 0 0
37 0 0 0
38 0 0 0
39 0 0 0
185 0 0 0
40 0 0 0
180 0 0 0
151 0 0 0
47 0 0 0
152 0 0 0
48 0 0 0
156 0 0 0
22 0 0 0
160 0 0 0
166 0 0 0
176 0 0 0
170 0 0 0
232 0 0 0
45 0 0 0
19 0 0 0
26 0 0 0
167 0 0 0
169 0 0 0
192 0 0 0
159 0 0 0
51 0 0 0
227 0 0 0
71 0 0 0
56 0 0 0
72 0 0 0
57 0 0 0
41 0 0 0
186 0 0 0
75 0 0 0
62 0 0 0
178 0 0 0
63 0 0 0
61 0 0 0
177 0 0 0
210 0 0 0
191 0 0 0
174 0 0 0
121 0 0 0
182 0 0 0
9 0 0 0
97 0 0 0
78 0 0 0
196 0 0 0
80 0 0 0
34 0 0 0
86 0 0 0
35 0 0 0
90 0 0 0
222 0 0 0
187 0 0 0
98 0 0 0
190 0 0 0
208 0 0 0
179 0 0 0
216 0 0 0
218 0 0 0
220 0 0 0
24 0 0 0
76 0 0 0
221 0 0 0
68 0 0 0
77 0 0 0
67 0 0 0
87 0 0 0
111 0 0 0
66 0 0 0
140 0 0 0
125 0 0 0
201 0 0 0
123 0 0 0
157 0 0 0
129 0 0 0
231 0 0 0
233 0 0 0
25 0 0 0
243 0 0 0
241 0 0 0
207 0 0 0
209 0 0 0
245 0 0 0
168 0 0 0
217 0 0 0
79 0 0 0
105 0 0 0
244 0 0 0
102 0 0 0
5 0 0 0
113 0 0 0
110 0 0 0
114 0 0 0
13 0 0 0
15 0 0 0
12 0 0 0
122 0 0 0
127 0 0 0
235 0 0 0
135 0 0 0
131 0 0 0
133 0 0 0
158 0 0 0
49 0 0 0
143 0 0 0
203 0 0 0
234 0 0 0
145 0 0 0
242 0 0 0
1 0 0 0
27 0 0 0
3 0 0 0
144 0 0 0
6 0 0 0
8 0 0 0
10 0 0 0
17 0 0 0
18 0 0 0
228 0 0 0
20 0 0 0
128 0 0 0
229 0 0 0
130 0 0 0
136 0 0 0
137 0 0 0
112 0 0 0
148 0 0 0
150 0 0 0
54 0 0 0
44 0 0 0
103 0 0 0
42 0 0 0
64 0 0 0
200 0 0 0
36 0 0 0
65 0 0 0
88 0 0 0
161 0 0 0
50 0 0 0
154 0 0 0
155 0 0 0
55 0 0 0
164 0 0 0
172 0 0 0
162 0 0 0
138 0 0 0
165 0 0 0
32 0 0 0
171 0 0 0
224 0 0 0
30 0 0 0
197 0 0 0
31 0 0 0
91 0 0 0
239 0 0 0
59 0 0 0
92 0 0 0
60 0 0 0
74 0 0 0
206 0 0 0
175 0 0 0
181 0 0 0
43 0 0 0
70 0 0 0
73 0 0 0
118 0 0 0
194 0 0 0
184 0 0 0
193 0 0 0
214 0 0 0
163 0 0 0
195 0 0 0
198 0 0 0
69 0 0 0
33 0 0 0
199 0 0 0
189 0 0 0
84 0 0 0
53 0 0 0
94 0 0 0
99 0 0 0
104 0 0 0
100 0 0 0
119 0 0 0
205 0 0 0
223 0 0 0
213 0 0 0
82 0 0 0
16 0 0 0
107 0 0 0
120 0 0 0
188 0 0 0
81 0 0 0
106 0 0 0
23 0 0 0
93 0 0 0
96 0 0 0
124 0 0 0
183 0 0 0
204 0 0 0
89 0 0 0
237 0 0 0
230 0 0 0
211 0 0 0
247 0 0 0
212 0 0 0
240 0 0 0
215 0 0 0
248 0 0 0
249 0 0 0
225 0 0 0
108 0 0 0
7 0 0 0
219 0 0 0
85 0 0 0
2 0 0 0
153 0 0 0
146 0 0 0
117 0 0 0
95 0 0 0
202 0 0 0
28 0 0 0
21 0 0 0
173 0 0 0
226 0 0 0
29 0 0 0
139 0 0 0
236 0 0 0
147 0 0 0
238 0 0 0
149 0 0 0
141 0 0 0
246 0 0 0
109 0 0 0
115 0 0 0
250 0 0 0
101 0 0 0
