LAMMPS data file via write_data, version 22 Jul 2025, timestep = 258, units = metal

250 atoms
1 atom types

3.5969224295152355e-06 15.825974403077561 xlo xhi
0 15.825978000000001 ylo yhi
0 15.825978000000001 zlo zhi

Masses

1 183.841

Atoms # atomic

24 1 9.490656390155479 6.343721736788268 0.015653285064570324 0 0 0
2 1 1.5777481623063683 1.595635665865646 1.5980600334267325 0 0 0
5 1 6.325439634252252 0.013093571062528566 0.015611372378653307 0 0 0
4 1 4.742829836182905 1.5955659009590155 1.5980872014082088 0 0 0
25 1 12.655859078697617 6.343661859680934 0.015535679368325278 0 0 0
6 1 7.90812440265015 1.595737368436909 1.5983219401870399 0 0 0
3 1 3.1602567107120887 0.013030300113148114 0.01547384937738817 0 0 0
8 1 11.073220338772467 1.595862298699057 1.5983378351107882 0 0 0
19 1 12.655721204557492 3.178444572005101 0.015607364133859911 0 0 0
10 1 14.23849228997385 1.5957579971714535 1.598219007377125 0 0 0
9 1 12.655811563474495 0.013289453718423348 0.01569873477006428 0 0 0
12 1 1.577716986115171 4.760857033840428 1.5980089148396193 0 0 0
17 1 9.490515804711851 3.178506638746597 0.01570489067480071 0 0 0
14 1 4.742919626075865 4.760947934516483 1.598062613156061 0 0 0
60 1 12.655897734947537 3.178586642204483 6.346085238582083 0 0 0
16 1 7.908095318825734 4.760990244592534 1.5982632123671532 0 0 0
1 1 15.821018221923282 0.01311391617010396 0.015475551361828542 -1 0 0
18 1 11.073264431429273 4.761029161474876 1.5982283125224226 0 0 0
65 1 12.655997934014241 6.343764517286376 6.345922373611845 0 0 0
20 1 14.23846001927062 4.76098252651288 1.598079284360345 0 0 0
64 1 9.490849963030382 6.343768111661892 6.345977134535653 0 0 0
63 1 6.325585773343789 6.343580671858974 6.345853578671529 0 0 0
62 1 3.1604801006165735 6.3435791057561755 6.345700497210942 0 0 0
61 1 15.82121808439031 6.34358089379597 6.3457109378467 -1 0 0
26 1 15.82115395904453 0.013123141789980428 3.1807285122859783 -1 0 0
27 1 1.5777932991687316 1.5957119726080091 4.763248891710673 0 0 0
13 1 3.160203392692763 3.178281248364733 0.015472619687496749 0 0 0
29 1 4.7430215826252065 1.595652217186109 4.763316775068404 0 0 0
30 1 6.325694550869393 0.013111142379546473 3.180884085375857 0 0 0
31 1 7.908234629994626 1.5957997328766256 4.7634994371235795 0 0 0
32 1 9.4908254577258 0.01320710952991642 3.180991141276444 0 0 0
33 1 11.073426819823494 1.595951306453086 4.763605108562706 0 0 0
34 1 12.65605193187715 0.013290798583670556 3.1809260425551322 0 0 0
35 1 14.238608075270816 1.5958608879146583 4.763445431361527 0 0 0
36 1 15.821156718740529 3.178324105863732 3.1806305351006623 -1 0 0
37 1 1.5777807821855818 4.760882585859661 4.76314013389565 0 0 0
38 1 3.160319017378265 3.178129641142839 3.180561524737457 0 0 0
39 1 4.743046905979226 4.76087558459598 4.763251807093753 0 0 0
40 1 6.325562258721149 3.178223388629443 3.180785054804878 0 0 0
41 1 7.908138171002091 4.761026170808988 4.763385493029945 0 0 0
42 1 9.490736943298188 3.1784303154230624 3.1808945906806 0 0 0
43 1 11.07335762531328 4.7610926975809 4.763452530646695 0 0 0
44 1 12.655932631165816 3.1783894143896116 3.1808466215646747 0 0 0
45 1 14.238576437210622 4.761031683864232 4.76327055770011 0 0 0
46 1 15.821195272931991 6.343498536228732 3.180562479856729 -1 0 0
47 1 3.1603903771334534 6.343413942098649 3.1804960418032495 0 0 0
48 1 6.325602163976361 6.343425698364099 3.1806694641069306 0 0 0
49 1 9.490810604027013 6.343624103584987 3.18074009917106 0 0 0
50 1 12.655992181390676 6.343610512328696 3.180730126052341 0 0 0
51 1 15.821161533427624 0.013290142040187697 6.345956223759066 -1 0 0
52 1 3.160446636524254 0.013158264032290876 6.345886225756431 0 0 0
53 1 6.325694995670565 0.01320707712936768 6.346006501698042 0 0 0
7 1 9.490601562429148 0.013224074031947712 0.01578963264395704 0 0 0
55 1 12.656014693046668 0.013495228430051921 6.3462088870627715 0 0 0
56 1 15.821153554114087 3.1784632069619128 6.345901065583836 -1 0 0
57 1 3.160338814833673 3.178291915009908 6.345803423874435 0 0 0
58 1 6.325541221628039 3.178422898151974 6.345956615213728 0 0 0
59 1 9.490776830396145 3.178548460865219 6.34616619092977 0 0 0
28 1 3.160396844734795 0.013006850312418954 3.1806670118693376 0 0 0
11 1 15.820977089848299 3.178354106792993 0.015485760398054292 -1 0 0
54 1 9.49089257236485 0.013407133973259988 6.3462332465938855 0 0 0
21 1 15.821101116185263 6.343566692013258 0.015373193679325325 -1 0 0
15 1 6.325321675914634 3.178313360141582 0.015595635256756779 0 0 0
127 1 3.160213199436085 6.343365293148983 0.015237207134356723 0 0 0
23 1 6.325364750002797 6.3434752910102805 0.015429698994742225 0 0 0
66 1 1.5777226829749729 1.595851223631276 7.9284407837318165 0 0 0
76 1 15.821044003382523 0.013461282099639997 9.511227141594418 -1 0 0
67 1 4.742928405839526 1.595804921570125 7.928483531584586 0 0 0
78 1 3.160313205016826 0.013199605378938327 9.511023756506404 0 0 0
80 1 6.325508070112498 0.013335144878755374 9.511248755895318 0 0 0
73 1 7.9081007370754985 4.761178133825095 7.928588836842595 0 0 0
82 1 9.490580218531285 0.013550698105656818 9.511502086805189 0 0 0
69 1 11.07326352001062 1.5962042952619024 7.928888168584811 0 0 0
84 1 12.65584432190668 0.013677312012252564 9.511499837059683 0 0 0
70 1 14.238445098566512 1.5960507731558777 7.9287201789320125 0 0 0
71 1 1.577723317116906 4.7609982718512915 7.928306680138578 0 0 0
86 1 15.821067326990157 3.1785837324265636 9.511121364257349 -1 0 0
72 1 4.742942536621461 4.760978581492812 7.928409428607961 0 0 0
88 1 3.1602356552537136 3.1783934492970474 9.510971432565203 0 0 0
90 1 6.325403935941367 3.178498605519274 9.511160962037268 0 0 0
68 1 7.908146904629249 1.5960068605298063 7.928743968003138 0 0 0
92 1 9.490494069494025 3.1787503921238978 9.51136929307255 0 0 0
74 1 11.073273640173058 4.761286138433069 7.928623959120909 0 0 0
94 1 12.655790567322853 3.1787625458772917 9.51141223833465 0 0 0
75 1 14.23848895087851 4.76117335395675 7.928563392565691 0 0 0
96 1 15.821079535931313 6.343682482281368 9.510924738906672 -1 0 0
97 1 3.16032257985734 6.343632679972188 9.510873734663159 0 0 0
98 1 6.325514850771901 6.343673889756044 9.511013210120543 0 0 0
99 1 9.490672691854318 6.3438618181346875 9.51118442914708 0 0 0
100 1 12.655879346093416 6.343856554889539 9.511143611978461 0 0 0
77 1 1.5776587307911487 1.595888037820198 11.0936726017896 0 0 0
101 1 15.821005703513201 0.013349909318988848 12.676351945718364 -1 0 0
79 1 4.742802061174396 1.5958367349852525 11.093733758380223 0 0 0
103 1 3.160166521026455 0.013144152796743778 12.676205553786119 0 0 0
105 1 6.325337925628858 0.013208617154102755 12.676428041862797 0 0 0
81 1 7.907894295434027 1.596046686269701 11.094002093512797 0 0 0
107 1 9.490431094523906 0.013421411468489158 12.676654847550763 0 0 0
83 1 11.073011153617932 1.5961926685803556 11.09408153513976 0 0 0
109 1 12.65571769946487 0.013548738869759838 12.676591235960734 0 0 0
85 1 14.23831935157188 1.5961113045427604 11.09390675780655 0 0 0
87 1 1.5776591481256956 4.761087770790875 11.093623028909175 0 0 0
111 1 15.82105399820203 3.178576313704343 12.676372488476929 -1 0 0
89 1 4.74277760741019 4.761077155554543 11.093617364338511 0 0 0
113 1 3.1601312556028263 3.17837558829141 12.676212050643981 0 0 0
115 1 6.325236299410663 3.1785386382813723 12.67644489905915 0 0 0
91 1 7.907877566934454 4.7612635760151365 11.093839906720154 0 0 0
117 1 9.490350958027143 3.1786948040127383 12.676617902733478 0 0 0
93 1 11.073094469161816 4.761325769686885 11.093932304987764 0 0 0
119 1 12.655635425273564 3.17870437413613 12.676530663885423 0 0 0
95 1 14.238423411831269 4.761230804571628 11.093738147477554 0 0 0
121 1 15.820984611733262 6.343674462843098 12.676163481223103 -1 0 0
122 1 3.160208612258892 6.343621424383229 12.676131986406068 0 0 0
123 1 6.325342094472494 6.343668437331175 12.676245449168594 0 0 0
124 1 9.490533895439151 6.343798973825631 12.676406039541192 0 0 0
125 1 12.65572862372002 6.343759309317681 12.676307497979213 0 0 0
102 1 1.5776144801080028 1.5958061801451158 14.258879870492153 0 0 0
104 1 4.742737057680152 1.5957305815214182 14.258942337481212 0 0 0
106 1 7.907834480240251 1.59589820184083 14.259167320509903 0 0 0
108 1 11.073040397795314 1.596031457525489 14.259164969940496 0 0 0
110 1 14.238366528446205 1.5959365766791558 14.259006076032673 0 0 0
112 1 1.5775127135198541 4.760948713421124 14.258762180107096 0 0 0
114 1 4.7427789011021595 4.760929604466783 14.258827142161657 0 0 0
116 1 7.907847599203529 4.7611590415750635 14.25906216499019 0 0 0
118 1 11.073038024595252 4.761180954022724 14.259045142326656 0 0 0
120 1 14.238381736179607 4.761129161139643 14.258950457163383 0 0 0
185 1 12.656095501974127 12.674239086921874 6.346105464415822 0 0 0
177 1 3.160545748090504 9.50870790487637 6.345704152596923 0 0 0
184 1 9.491064421308817 12.674281996123744 6.346216487335224 0 0 0
163 1 11.073564888417087 11.091535280419471 4.763446684290633 0 0 0
176 1 15.82131403284089 9.508845857309424 6.345755690322615 -1 0 0
183 1 6.325731807137149 12.673978636349783 6.345929316553024 0 0 0
175 1 14.238685161416381 14.256693738210183 4.763458029721738 0 0 0
182 1 3.1605123587788775 12.67391744926586 6.345781256070191 0 0 0
173 1 11.073549082134065 14.256751283637989 4.763609612337121 0 0 0
181 1 15.821360278451031 12.674073370931485 6.345862980118975 -1 0 0
132 1 1.5778554749353617 11.091291227985618 1.597968797096728 0 0 0
171 1 7.9083325850639605 14.256622137875437 4.763507500678559 0 0 0
134 1 4.7430422540623285 11.091160608558921 1.598086370119132 0 0 0
169 1 4.74315726616893 14.256491285218559 4.763391491481142 0 0 0
167 1 1.5778950520050605 14.256479061672957 4.763264002880839 0 0 0
136 1 7.908239629646346 11.091334242897787 1.5981981906193619 0 0 0
165 1 14.238715220698644 11.091435757854368 4.763272552579815 0 0 0
138 1 11.07345497072305 11.091469718897073 1.598256837950484 0 0 0
174 1 12.656071447847456 12.67404657070659 3.1808830338857668 0 0 0
140 1 14.238628555651912 11.091338267191487 1.5981197211609923 0 0 0
142 1 1.5777879709475093 14.25638554671372 1.5980421990883285 0 0 0
144 1 4.742972796338047 14.256403585372832 1.5981049363251523 0 0 0
146 1 7.90823378075023 14.256532852555157 1.5983436585858646 0 0 0
148 1 11.073371589688636 14.256606346532376 1.5983962159823177 0 0 0
150 1 14.238548947561739 14.256563007010431 1.598167466139717 0 0 0
180 1 12.65612995474691 9.509009118242025 6.345928041317055 0 0 0
156 1 15.82132227889482 9.508729744711854 3.180552528407499 -1 0 0
22 1 3.1604224211321403 9.50858792903108 3.1803884013869443 0 0 0
151 1 1.5779320885012174 7.926193342757121 4.763123599035745 0 0 0
147 1 9.490746208198885 12.674021114688582 0.01571625937278927 0 0 0
160 1 6.325818339539883 9.50874248307769 3.180705027429272 0 0 0
179 1 9.490948502458775 9.508937093013246 6.345939660017707 0 0 0
162 1 9.49086202340729 9.508798099570086 3.180746959896583 0 0 0
178 1 6.325730052922722 9.508814087158703 6.345789337459206 0 0 0
164 1 12.656168889117346 9.508899690119648 3.180770006911911 0 0 0
158 1 4.742926340353367 7.926011755914747 1.5979143229983244 0 0 0
157 1 1.5779325577003092 11.091180286612463 4.763073387138906 0 0 0
166 1 15.821303377362188 12.673907240029264 3.180662764457896 -1 0 0
159 1 4.743182581987564 11.091260141183005 4.763192613577387 0 0 0
168 1 3.160488375245568 12.673847962333658 3.1805590926178375 0 0 0
170 1 6.325691366075226 12.67383118226249 3.1807526067365544 0 0 0
161 1 7.908471603074887 11.091517983954825 4.763474599331942 0 0 0
172 1 9.49090362697908 12.673996155176008 3.1808750377667763 0 0 0
128 1 7.9082062164948725 7.9261786894105795 1.5981442469554183 0 0 0
155 1 14.238674561956278 7.926267497740924 4.763201593725915 0 0 0
152 1 4.743109836053528 7.92614456959652 4.763135860265811 0 0 0
133 1 3.1603108311724895 9.508640014449817 0.015340808568685199 0 0 0
129 1 11.073393852020722 7.926256955729827 1.598163826888501 0 0 0
130 1 14.238566301388929 7.92617806958249 1.598014901753763 0 0 0
137 1 9.490753810559296 9.508799707589231 0.015584359756160304 0 0 0
143 1 3.160399726985461 12.673837888049563 0.015439428793839836 0 0 0
145 1 6.325445893719728 12.673891996594998 0.015543361727356885 0 0 0
139 1 12.65594760932939 9.50885695423071 0.015489192644231846 0 0 0
149 1 12.6558981786846 12.674041490294712 0.01563199466019989 0 0 0
141 1 15.821103867739524 12.673890805750187 0.01538805953452785 -1 0 0
154 1 11.07352656005448 7.926335196772285 4.763399846380913 0 0 0
153 1 7.908309063604186 7.926212907202551 4.763304494354469 0 0 0
126 1 1.577856301038612 7.9260132238783605 1.5978755708613677 0 0 0
131 1 15.821124025286654 9.508733291021843 0.015325943703690115 -1 0 0
135 1 6.325549910208324 9.508727310376024 0.015357025424146187 0 0 0
250 1 14.238397807820759 14.256713445555512 14.258964364871469 0 0 0
206 1 15.821164230980552 9.508934550641207 9.510890551179479 -1 0 0
248 1 11.073164723988384 14.256698970987378 14.259157317714083 0 0 0
208 1 3.1604023071602345 9.508822187380373 9.510818443027954 0 0 0
210 1 6.32568424607803 9.508952123341304 9.51102838066236 0 0 0
246 1 7.908009747807325 14.25658457108896 14.259112031125538 0 0 0
212 1 9.490816118968443 9.509065900380804 9.51111897609015 0 0 0
244 1 4.742830726816469 14.256477040869202 14.258885713411516 0 0 0
214 1 12.656066620961564 9.509069675039054 9.51113455939717 0 0 0
242 1 1.5776152737197018 14.25646691168402 14.258797746449888 0 0 0
189 1 11.073421610766193 7.9265082729506355 7.928518608536274 0 0 0
216 1 15.82112200000867 12.674159820525926 9.511060043163422 -1 0 0
196 1 1.5778142492967988 14.256629760834095 7.928441928813841 0 0 0
218 1 3.160395423331674 12.674025747315545 9.510983402150373 0 0 0
220 1 6.325652940981815 12.674076272809428 9.511131708785188 0 0 0
193 1 7.908333793686377 11.091541164737883 7.928586319509427 0 0 0
222 1 9.490852570582518 12.674295776796859 9.511308265961143 0 0 0
194 1 11.073546694339212 11.091694032625941 7.928643453976744 0 0 0
224 1 12.655978016583589 12.674346800316835 9.511323255763644 0 0 0
195 1 14.238707590435219 11.09160704569449 7.928505844709489 0 0 0
201 1 1.5777472552890761 7.926239469025155 11.093443353472335 0 0 0
197 1 4.743111992246826 14.25659673829944 7.928504848671752 0 0 0
198 1 7.908313372728681 14.256791552330226 7.928752961270747 0 0 0
230 1 14.238456963973123 7.926267093996241 14.258821892149154 0 0 0
200 1 14.238572833240463 14.256871329936946 7.9287070488906775 0 0 0
240 1 14.238495688619032 11.091426450580167 14.258849031494249 0 0 0
231 1 15.821127684564747 9.50883991733507 12.676132905306243 -1 0 0
238 1 11.073271487473317 11.091543659594976 14.25898668802095 0 0 0
233 1 3.1602557176658705 9.508715280997638 12.676005472704427 0 0 0
235 1 6.32548943359435 9.508849590159201 12.676157170298318 0 0 0
236 1 7.908032434691473 11.091420382415171 14.258979555699494 0 0 0
237 1 9.490681341971811 9.50896903997238 12.676365874557241 0 0 0
234 1 4.742922558391171 11.09131833690846 14.258790888561293 0 0 0
239 1 12.655892048471873 9.508995754195231 12.676244456825282 0 0 0
232 1 1.5776964059972558 11.091309133887423 14.258702009011204 0 0 0
207 1 1.5777370628335194 11.091441649189287 11.093510088280489 0 0 0
241 1 15.821064459690264 12.674096476256375 12.67625479246157 -1 0 0
209 1 4.742954426102588 11.091412339806386 11.093534300391402 0 0 0
243 1 3.1602218840229552 12.673934998433563 12.67613576806067 0 0 0
245 1 6.3254484207296695 12.674012458976062 12.676350894303685 0 0 0
211 1 7.908178907884911 11.09154922328995 11.093739773643108 0 0 0
247 1 9.490678175961692 12.674193508189177 12.676476595114018 0 0 0
213 1 11.073366547330005 11.091694395966533 11.093833333794654 0 0 0
249 1 12.655798748289167 12.674221693642451 12.676421665949016 0 0 0
215 1 14.238560412863256 11.091611890306257 11.093665437881103 0 0 0
217 1 1.5776622920385721 14.256640121875986 11.093632263280279 0 0 0
219 1 4.74287206873197 14.256586075793537 11.093676200558164 0 0 0
221 1 7.908073981372799 14.256761337654979 11.093934785163723 0 0 0
223 1 11.073207705465693 14.256954760796209 11.094081447180102 0 0 0
225 1 14.238372122575683 14.256922298624696 11.093813350953544 0 0 0
228 1 7.908066060065112 7.926300525064106 14.258941421471553 0 0 0
204 1 11.073248783656053 7.9264520240820655 11.093754488909761 0 0 0
188 1 7.908306342031932 7.926394099825737 7.928500211786415 0 0 0
226 1 1.5776968505783169 7.926176476037882 14.258671024756387 0 0 0
186 1 1.5778574061316437 7.926223831709775 7.928237380749624 0 0 0
192 1 4.74313846804812 11.091466882350426 7.9284023776002295 0 0 0
229 1 11.073240705956653 7.926334900122381 14.25892408295393 0 0 0
187 1 4.743033107548742 7.926217801763368 7.92831667071858 0 0 0
203 1 7.908124516175917 7.926389173524509 11.093677165540862 0 0 0
205 1 14.238501280328652 7.926411587340055 11.093582348395822 0 0 0
227 1 4.742870915086415 7.9261728464874155 14.2588809812966 0 0 0
190 1 14.238644381123791 7.926367993340833 7.928385493323983 0 0 0
191 1 1.5778887915323863 11.09144575074468 7.928321343845409 0 0 0
202 1 4.742846635493948 7.926193218044189 11.093455582804841 0 0 0
199 1 11.073423386075843 14.256937520941577 7.928832135652254 0 0 0

Velocities

24 0 0 0
2 0 0 0
5 0 0 0
4 0 0 0
25 0 0 0
6 0 0 0
3 0 0 0
8 0 0 0
19 0 0 0
10 0 0 0
9 0 0 0
12 0 0 0
17 0 0 0
14 0 0 0
60 0 0 0
16 0 0 0
1 0 0 0
18 0 0 0
65 0 0 0
20 0 0 0
64 0 0 0
63 0 0 0
62 0 0 0
61 0 0 0
26 0 0 0
27 0 0 0
13 0 0 0
29 0 0 0
30 0 0 0
31 0 0 0
32 0 0 0
33 0 0 0
34 0 0 0
35 0 0 0
36 0 0 0
37 0 0 0
38 0 0 0
39 0 0 0
40 0 0 0
41 0 0 0
42 0 0 0
43 0 0 0
44 0 0 0
45 0 0 0
46 0 0 0
47 0 0 0
48 0 0 0
49 0 0 0
50 0 0 0
51 0 0 0
52 0 0 0
53 0 0 0
7 0 0 0
55 0 0 0
56 0 0 0
57 0 0 0
58 0 0 0
59 0 0 0
28 0 0 0
11 0 0 0
54 0 0 0
21 0 0 0
15 0 0 0
127 0 0 0
23 0 0 0
66 0 0 0
76 0 0 0
67 0 0 0
78 0 0 0
80 0 0 0
73 0 0 0
82 0 0 0
69 0 0 0
84 0 0 0
70 0 0 0
71 0 0 0
86 0 0 0
72 0 0 0
88 0 0 0
90 0 0 0
68 0 0 0
92 0 0 0
74 0 0 0
94 0 0 0
75 0 0 0
96 0 0 0
97 0 0 0
98 0 0 0
99 0 0 0
100 0 0 0
77 0 0 0
101 0 0 0
79 0 0 0
103 0 0 0
105 0 0 0
81 0 0 0
107 0 0 0
83 0 0 0
109 0 0 0
85 0 0 0
87 0 0 0
111 0 0 0
89 0 0 0
113 0 0 0
115 0 0 0
91 0 0 0
117 0 0 0
93 0 0 0
119 0 0 0
95 0 0 0
121 0 0 0
122 0 0 0
123 0 0 0
124 0 0 0
125 0 0 0
102 0 0 0
104 0 0 0
106 0 0 0
108 0 0 0
110 0 0 0
112 0 0 0
114 0 0 0
116 0 0 0
118 0 0 0
120 0 0 0
185 0 0 0
177 0 0 0
184 0 0 0
163 0 0 0
176 0 0 0
183 0 0 0
175 0 0 0
182 0 0 0
173 0 0 0
181 0 0 0
132 0 0 0
171 0 0 0
134 0 0 0
169 0 0 0
167 0 0 0
136 0 0 0
165 0 0 0
138 0 0 0
174 0 0 0
140 0 0 0
142 0 0 0
144 0 0 0
146 0 0 0
148 0 0 0
150 0 0 0
180 0 0 0
156 0 0 0
22 0 0 0
151 0 0 0
147 0 0 0
160 0 0 0
179 0 0 0
162 0 0 0
178 0 0 0
164 0 0 0
158 0 0 0
157 0 0 0
166 0 0 0
159 0 0 0
168 0 0 0
170 0 0 0
161 0 0 0
172 0 0 0
128 0 0 0
155 0 0 0
152 0 0 0
133 0 0 0
129 0 0 0
130 0 0 0
137 0 0 0
143 0 0 0
145 0 0 0
139 0 0 0
149 0 0 0
141 0 0 0
154 0 0 0
153 0 0 0
126 0 0 0
131 0 0 0
135 0 0 0
250 0 0 0
206 0 0 0
248 0 0 0
208 0 0 0
210 0 0 0
246 0 0 0
212 0 0 0
244 0 0 0
214 0 0 0
242 0 0 0
189 0 0 0
216 0 0 0
196 0 0 0
218 0 0 0
220 0 0 0
193 0 0 0
222 0 0 0
194 0 0 0
224 0 0 0
195 0 0 0
201 0 0 0
197 0 0 0
198 0 0 0
230 0 0 0
200 0 0 0
240 0 0 0
231 0 0 0
238 0 0 0
233 0 0 0
235 0 0 0
236 0 0 0
237 0 0 0
234 0 0 0
239 0 0 0
232 0 0 0
207 0 0 0
241 0 0 0
209 0 0 0
243 0 0 0
245 0 0 0
211 0 0 0
247 0 0 0
213 0 0 0
249 0 0 0
215 0 0 0
217 0 0 0
219 0 0 0
221 0 0 0
223 0 0 0
225 0 0 0
228 0 0 0
204 0 0 0
188 0 0 0
226 0 0 0
186 0 0 0
192 0 0 0
229 0 0 0
187 0 0 0
203 0 0 0
205 0 0 0
227 0 0 0
190 0 0 0
191 0 0 0
202 0 0 0
199 0 0 0
