LAMMPS data file via write_data, version 22 Jul 2025, timestep = 27667, units = metal

250 atoms
1 atom types

-0.039947269202938666 15.865925269202965 xlo xhi
0 15.825978000000001 ylo yhi
0 15.825978000000001 zlo zhi

Masses

1 183.841

Atoms # atomic

11 1 1.7923449762066108 1.4548987186553703 1.5729329710920845 0 0 0
4 1 4.977745974276844 1.4597433752829356 1.5649118555423043 0 0 0
116 1 1.7854790680743713 4.61716204346989 1.5757770414704575 0 0 0
34 1 6.588418826372182 15.722356720353664 6.333071693875608 0 -1 0
14 1 4.921040815844412 4.62671260255978 1.54795615740642 0 0 0
186 1 1.8026904807516588 7.779580745830706 7.900053225592459 0 0 0
80 1 4.954676674461488 14.100931682890078 7.881200780468335 0 -1 0
12 1 0.21515732105748722 6.203080554933024 0.0229820536642036 0 0 0
126 1 1.8096215486432432 7.769885781418718 1.5952762757298566 0 0 0
132 1 4.9787028335043235 7.76646085506242 1.5700298028327144 0 0 0
220 1 4.96408532135651 10.94110054073865 7.898449967768336 0 0 0
135 1 6.590565586341731 6.160388379153629 0.04014429637886871 0 0 0
131 1 0.26089319495756863 9.314769968630232 0.07194431839979355 0 0 0
71 1 1.7999515235429473 4.626909191190025 7.899562647773157 0 0 0
51 1 1.801629258671332 1.467705605643517 7.8913744475535745 0 0 0
46 1 1.7947845852741655 10.953577260308245 1.5821309801328214 -1 0 0
178 1 4.969402840269541 7.782285270986399 7.895772780549685 0 0 0
134 1 4.972639816937716 10.9432371202154 1.5661839181697808 0 0 0
97 1 1.7968846166976777 14.119278304607198 7.900577688510832 0 0 0
142 1 1.7921249758191442 14.11620004813432 1.5763728019925862 0 0 0
1 1 0.20923891139762116 15.70337028554956 0.010212291586108055 0 -1 0
83 1 4.974165014731498 14.116125266696644 1.5689945314108802 0 0 0
72 1 4.969340827014206 4.628848741551548 7.891608660924027 0 0 0
191 1 1.797764475087926 10.946136922280443 7.904445259413276 0 0 0
52 1 1.8038592842190164 1.473680924196342 4.712286548063099 0 0 0
58 1 4.965758467368982 1.469105590643399 4.700310281343443 0 0 0
37 1 1.7993743893642902 4.647526159029209 4.704918496513374 0 0 0
38 1 0.19283521472157455 3.0420195428894905 3.147319672301417 0 0 0
39 1 4.925562442924831 4.687642823711898 4.64974202151112 0 0 0
185 1 3.3801510742747936 3.0411572440059707 3.1374419956868422 0 1 0
40 1 6.556408445584513 3.1172845982990705 3.0389288678045228 0 0 0
180 1 0.1870902368123768 6.206929179311897 3.158357891957614 0 0 0
151 1 1.796216606812668 7.7852215778188345 4.728392639495848 1 0 0
47 1 3.3707629579257268 6.221046389829139 3.131956119681888 0 0 0
152 1 4.970783118310333 7.779207400650034 4.712358392315029 0 0 0
48 1 6.586285647762148 6.1846369886244235 3.1039505170986135 0 0 0
156 1 0.19461517126076028 9.367659363140337 3.167757793448421 0 0 0
22 1 3.3725406891185568 9.35912090930494 3.1385575013412947 0 0 0
160 1 6.550972403287191 9.337174860929768 3.1244068777558525 0 0 0
166 1 0.19366026642695613 12.536044999668055 3.1583654201847122 0 0 0
176 1 1.7920492108394466 10.939662954751507 4.72339332591996 0 0 0
170 1 4.930002698696089 10.909905717713443 4.690351522574348 0 0 0
232 1 3.3813817171949285 12.534589054318289 3.148254554914727 0 0 0
45 1 6.553660555237152 12.52188766863422 3.1327698434823983 0 0 0
26 1 0.1947519757862621 15.700565139499949 3.153330269379366 0 -1 0
167 1 1.8001395203612154 14.114433200740988 4.722541572650018 0 0 0
169 1 3.3812365172416294 15.699991120133497 3.1444153717573977 0 0 0
192 1 4.970131357736405 14.123831380193405 4.72413195520814 0 0 0
159 1 6.5585516899810345 15.704685768731874 3.1477144256387217 0 -1 0
227 1 4.954807514213678 1.4844598701439304 7.874888038993584 0 0 0
56 1 0.2548450714453361 3.1091340459727874 6.251167698834935 0 0 0
57 1 3.376876345716273 3.0598519422536317 6.294167945500686 0 0 0
41 1 6.427171480538079 3.1816585643448807 6.146608144075643 0 0 0
75 1 0.21581469312497906 6.216938133088764 6.296310645408451 1 0 0
62 1 3.3839370552260495 6.207377986763371 6.311316207864531 0 0 0
63 1 6.546840148102593 6.220872090166992 6.284768305044395 0 0 0
61 1 0.2208757504743163 9.342612981781087 6.293289163199916 0 0 0
177 1 3.382502110455931 9.361802732271 6.314496447971877 0 0 0
210 1 6.550859701247403 9.347795581637628 6.296746205183037 0 0 0
174 1 0.2400939756850565 12.50852155711054 6.273110675061558 1 0 0
182 1 3.3722805802066493 12.52552516986998 6.306831238094907 0 0 0
9 1 6.458033891875816 12.436654799592064 6.210340483555589 0 -1 0
78 1 0.2712574044290363 15.72427893748188 6.245747708656903 1 -1 0
196 1 3.397596482997081 15.707190140783709 6.305955356144795 0 0 0
15 1 6.574622323395119 3.054370599324098 0.00787542410277267 0 0 0
158 1 6.556940140604545 9.333445024906283 0.012574054592667104 0 0 0
49 1 0.20877907488257438 12.53077754124042 0.009246190398774595 0 0 0
110 1 0.205639729463515 3.0386590388293846 0.00933287682608252 1 0 1
133 1 3.400819318393784 9.358800502830322 0.0020807535764344465 0 0 0
25 1 6.5647550993438 9.35311725189583 12.663058418082484 0 0 -1
86 1 0.1896346505629388 3.044213545172804 9.491766195912449 0 0 0
235 1 4.995821283620154 7.7639781673879265 14.249458629810944 0 0 0
35 1 3.3788547666542756 3.0433632548744805 9.483900466930214 0 0 0
27 1 4.977700738219699 14.114141817268893 14.234412987793661 0 0 0
90 1 6.530251065564072 3.057679360988501 9.51961944165523 0 0 0
222 1 0.21326650294558194 6.1994428121826 9.488816728639918 0 0 0
143 1 1.8227853636598281 10.935386224086894 14.2608755166882 0 0 -1
187 1 3.3889909555466904 6.202203327819971 9.485146082000902 0 0 0
242 1 1.8152185013313986 14.117348382400147 14.252801092234199 0 0 0
98 1 6.558963106999482 6.204313813656525 9.48312040669391 0 0 0
190 1 0.21004352870897544 9.337922130278876 9.473018600734468 1 0 0
208 1 3.3855479625162626 9.36104639582868 9.487516660764292 0 0 0
179 1 6.554172768582695 9.353257595023766 9.481358326571184 0 0 0
216 1 0.17874895937761276 12.511480235623667 9.507650376401257 0 0 0
122 1 1.8389978442313313 7.752397298396123 14.276995772029842 0 0 0
218 1 3.3735304658080354 12.528730580615454 9.487604685120914 0 0 0
13 1 3.38897910074095 3.0271144446758425 15.813199880011364 0 0 -1
221 1 6.542475726503902 12.50993613727312 9.503558479195034 0 0 0
114 1 4.993828310073453 4.615968896765589 14.244501154391083 0 0 0
24 1 0.1900389212574388 15.739856458530543 9.509194628212217 0 -1 -1
76 1 3.3711554343642085 15.702735776352634 9.481714697473931 0 -1 0
68 1 6.464051564530551 15.701195904776078 9.468723609483826 0 -1 0
77 1 1.8112714443895017 1.466702241731928 11.082217192360313 0 0 0
67 1 4.981588380833519 1.458545220113141 11.074341714217606 0 0 0
87 1 1.8077378043960468 4.624622668324121 11.072930226504967 0 0 0
111 1 0.2869537401202353 3.1082390759312957 12.731491375634095 0 0 0
66 1 4.975247711644207 4.626635455118925 11.07661763386875 0 0 0
104 1 3.405888178740625 3.0404695241175728 12.659371999883117 0 0 0
219 1 6.5754828172152004 3.0326832690108674 12.658501388219426 0 0 0
125 1 0.23451773073351972 6.2014657269187055 12.686495743472678 1 0 0
201 1 1.8092910777720939 7.7781285304684324 11.075378587798845 0 0 0
123 1 4.979328442209044 7.778511089123646 11.072462077396791 0 0 0
157 1 3.400359299895331 6.198421130504667 12.657230939625922 0 0 0
121 1 6.570069978631852 6.195906045520399 12.664328436973895 0 0 0
231 1 0.2962202494923422 9.275605881260951 12.75523750280078 0 0 0
233 1 3.4065879877901057 9.352186756693355 12.665843830824059 0 0 0
203 1 4.978829293610944 10.939962737307818 14.241647306879146 0 0 0
243 1 1.8116658853575018 10.932437803628225 11.08538499581001 0 0 0
241 1 0.2605910313114714 12.531173108496287 12.709851580652849 1 0 0
207 1 3.3953939711901313 12.527682410483841 12.657171743832752 0 0 0
209 1 4.972340840044119 10.937590701508256 11.074358064862754 0 0 0
245 1 6.56452002704937 12.524228425933872 12.655741352695868 0 0 0
168 1 0.22741870065973985 15.68606726205591 12.682075891286575 0 -1 0
217 1 1.7897087722177272 14.11374624982831 11.069015040764725 0 0 0
79 1 3.395749582378476 15.696313857931058 12.651683627618072 0 -1 0
105 1 4.973792419828425 14.106746866016849 11.070072145721525 0 -1 0
244 1 6.579489568844259 15.695202783991842 12.638080161683156 0 0 0
102 1 1.8054813703553358 1.4521317077152698 14.243188048961144 0 0 0
5 1 4.986821272471636 1.4551710266365763 14.237349927383528 0 0 -1
113 1 1.833153035988275 4.6355346281370124 14.270182478010213 0 0 0
144 1 6.558217066592662 15.702986473504177 15.819325561892127 0 0 -1
127 1 3.402122336503061 6.199907988266291 15.823123800862978 0 0 -1
3 1 3.389646878753043 15.698453905033373 15.819243061800742 0 -1 -1
145 1 6.561944088379448 12.521839524842086 15.821517760416873 0 0 -1
234 1 3.3905054742527145 12.531249081519507 15.822686340268852 0 0 0
6 1 8.152167164087102 1.436779605441138 1.5533583398710185 0 0 0
8 1 11.328148813295558 1.4667091768460405 1.5683869268673873 0 0 0
10 1 14.505313631930534 1.454677594707385 1.5805913143630812 0 0 0
214 1 11.274429431320534 10.953954543711411 7.875767321666674 0 0 0
18 1 11.354927999012153 4.6219054889436455 1.5708534051413343 0 0 0
228 1 12.92415068953085 3.051046265488679 0.008858047185873552 0 0 1
20 1 14.505546739394417 4.633271657659957 1.5847595184778398 0 0 0
199 1 10.787073216018763 14.188681803313713 7.545395412632277 0 0 0
128 1 8.147529697499142 7.785468762257103 1.5709626690517529 0 0 0
229 1 12.89697624686757 6.231272599524156 0.03543972708978316 0 0 1
130 1 14.538782743478112 7.78623098208065 1.5870765762422396 0 0 0
29 1 9.774917963935854 9.31886831238163 0.038035817293242735 0 0 1
139 1 12.899766715384853 9.329939294440257 0.04156651362241599 0 0 0
136 1 8.162212938524325 10.926494492002956 1.5682575960560732 0 0 0
33 1 12.891913011713601 15.690741471985044 6.4249191366848555 0 -1 0
137 1 11.341167672923364 10.96912661026514 1.5708587648309833 0 0 0
149 1 12.94406833951029 12.51351455324857 0.007462588665171904 0 0 0
140 1 14.51156863799036 10.937596229219624 1.5988630042766716 0 0 0
112 1 8.154521618048053 14.108022270387995 1.57143864233199 0 0 0
193 1 8.12466392928323 10.927346328466541 7.886484865630968 0 0 0
148 1 11.336352626432616 14.117529200799268 1.5726054433323955 0 0 0
150 1 14.50785831868137 14.117149048787896 1.5884928063279555 0 0 0
54 1 8.065576788619081 1.582444891669863 4.593031707256344 0 0 0
44 1 11.326670465552198 1.4869815979718461 4.712493543092213 0 0 0
103 1 14.506287213908902 1.462510407567698 4.7366779954553015 -1 -1 0
42 1 9.726182144294507 3.097474532628571 3.0886898553437088 0 0 0
64 1 8.152627422388727 4.668542045513705 4.692329330910401 0 0 0
200 1 11.331420123750776 4.661931470384134 4.6815061005624665 0 0 0
36 1 12.916734965443137 3.051144533605442 3.154543740562872 -1 0 0
65 1 14.497483131106327 4.634979472345472 4.720644402550742 0 0 0
88 1 9.753850316300925 6.217524776433165 3.0927417477032484 0 0 0
161 1 8.158899098020582 7.763510536805055 4.684842044036952 0 0 0
50 1 12.895718675572313 6.238347605992886 3.123207667702901 0 0 0
154 1 11.326319533942508 7.777181632476671 4.72903708725001 0 0 0
155 1 14.4974556328868 7.789594594775086 4.727362793909298 0 0 0
55 1 9.770861603295685 9.325932298315927 3.113918546012057 0 0 0
164 1 12.911333056769434 9.347842791063954 3.138371259067023 0 0 0
19 1 8.107881670581254 10.873907183377382 4.654634423429401 0 0 0
172 1 9.738700798986226 12.516916969669216 3.140607208607869 0 0 0
162 1 11.351292653103988 10.917298910678872 4.70318803990669 0 0 0
138 1 12.918088037940628 12.536486567653041 3.1852330060482705 0 0 0
165 1 14.49810369078332 10.950344817916786 4.739591018777331 0 0 0
32 1 9.731843113911909 15.717086117930908 3.1410393777226444 0 -1 0
171 1 8.135456947062451 14.09696435553327 4.71787192790555 0 0 0
224 1 12.912327474623666 15.701420483240593 3.177848617701456 0 -1 0
30 1 11.300651770903151 14.122515094963862 4.747265222656958 0 0 0
197 1 14.498859860544556 14.122306495754328 4.758935406618631 0 -1 0
31 1 7.966088885680421 1.861674287791056 7.6708786606219075 0 0 0
69 1 9.53969244951058 0.08856344894673006 6.126021864489047 0 0 0
239 1 14.684752181980585 1.5330979989149762 7.715476262678654 0 0 0
59 1 9.754827410122875 3.1279551488389767 6.222104453646743 0 0 0
92 1 8.122030560770629 4.657942897678129 7.86663501645424 0 0 0
60 1 12.912620482197724 3.039336058224127 6.334092451402849 0 0 0
198 1 8.021379310398146 13.80216203575245 7.738011383823358 0 0 0
206 1 14.557055550738575 4.668360954781171 7.857867862541132 0 0 0
175 1 8.138129074058934 7.778078367975093 7.8811851537317335 0 0 0
181 1 9.731209012943633 6.21568913223527 6.2761294881757 0 0 0
43 1 12.918624814711082 6.2061761184617845 6.3057779556453815 0 0 0
189 1 11.309291248696162 7.766382963491343 7.877391697681603 0 0 0
73 1 14.53833603363134 7.761642014720509 7.876803734306198 0 0 0
118 1 9.725175771270122 9.345092798056145 6.282490840002983 0 0 0
194 1 12.915444650945771 9.374193724527409 6.332908042430624 0 0 0
184 1 9.654310531281736 12.341591895560756 6.169491073666945 0 0 0
70 1 14.77505225574816 14.148831647695467 7.8216739113998734 0 -1 0
163 1 12.895524503794519 12.57134102242004 6.433310479762878 0 0 0
195 1 14.598876981204905 10.918636927208876 7.810559383334761 0 0 0
17 1 9.727004925170691 3.0740979257696726 0.028457311968945923 0 0 0
74 1 11.30386702946964 4.647597260880507 7.874167814683053 0 0 0
91 1 11.171711976123243 1.4546217971396456 7.8913181985809535 0 0 0
28 1 9.749901140850639 6.197219359292693 0.05216355428566288 0 0 0
82 1 9.047021663697572 15.811061623785418 8.892201394154808 0 -1 0
84 1 13.10163671630697 0.6610830583113367 9.505555704808486 0 0 0
246 1 8.118030953117298 14.119838926887919 14.275725772492732 0 0 0
53 1 9.696087364038098 3.0725584667282 9.436454532388181 0 -1 0
94 1 12.965921749306041 3.289343136030874 9.452513497553452 0 0 0
99 1 9.731906933878655 6.20904580510223 9.478303902752483 0 0 0
100 1 12.932485011589476 6.211597512780584 9.48523990217637 0 0 0
119 1 9.722232681259054 9.342085741966818 9.457202415397937 0 0 0
205 1 12.92825634878486 9.14000624784121 9.497881405692238 0 0 0
223 1 9.807896740391493 12.578666661241709 9.477448136034857 0 0 0
115 1 11.359183082974399 14.073172416116172 14.2129113955243 0 0 0
213 1 13.014847124813802 11.733136105873053 9.678765195440006 0 0 0
120 1 10.871868054983159 15.47601150076685 10.468298537742978 0 -1 0
16 1 12.64276216519767 14.079704452711717 9.175526286342897 0 0 0
107 1 8.237539751991577 1.4328349292795806 11.049528644906621 0 0 0
23 1 11.406187917296904 1.9957813846610597 11.135020102013225 0 0 0
188 1 14.652233302852135 1.5774992239412104 11.293451503623292 0 0 0
81 1 8.158492958204727 4.618222649690119 11.071033993198593 0 0 0
106 1 9.684069529209399 3.0896496352802334 12.737038512908342 0 0 0
93 1 11.324940219193913 4.701463340586532 11.099741269358278 0 0 0
95 1 13.018372322492429 3.1458949137852237 12.774204684879644 0 0 0
96 1 14.548841174925458 4.659523448815324 11.10991850507072 -1 0 0
124 1 9.729045005513084 6.200990681059957 12.698187450165298 0 0 0
101 1 14.54573535296923 14.149642462168991 14.26961878798793 -1 -1 0
129 1 8.14865796318964 7.773935332190522 11.075440758832855 0 0 0
183 1 12.939226630808228 6.215539888348033 12.690598662673153 0 0 1
204 1 11.309023215968551 7.749907849499908 11.107081482040972 0 0 0
89 1 14.556662701922244 7.747520649425595 11.107670798480202 0 0 0
237 1 9.664261686011779 9.281753281614666 12.745523902507877 0 0 0
230 1 12.974330673159011 9.329621159828115 12.687020702515197 0 0 0
211 1 8.143674671654688 10.92649969273875 11.055532950229653 0 0 0
247 1 9.510385027787656 12.450968723273986 12.764891973579056 0 0 0
212 1 11.209808327346801 10.679732909224777 11.187621075641898 0 0 0
240 1 13.30067386798294 12.32391004409276 12.83526393233245 0 0 0
215 1 14.780244587347763 10.803934493368642 11.235931404948364 0 0 0
248 1 8.20083421455748 14.126372724751942 11.021040846573014 0 0 0
7 1 9.722989751091147 15.678334671509024 12.782364071497097 0 -1 -1
249 1 11.494267178353335 13.292687037185976 11.420914831671759 0 0 0
225 1 12.88574056728556 15.702105229672345 12.563770888653293 0 0 0
108 1 14.516336628726162 14.108961038387664 11.072863125958397 0 0 0
146 1 8.144805214433585 1.471490597446495 14.26160764367279 0 1 -1
85 1 11.343188657638239 1.4778935085636629 14.234283191343115 0 0 0
2 1 14.530046496612652 1.4605285493140985 14.257627192782655 0 0 0
153 1 8.148458226451163 4.644640504573869 14.266659968257319 0 0 0
117 1 11.323832392099247 4.646038165647817 14.280871211647987 0 0 0
21 1 14.547061140928001 4.666947397351167 14.303600795535715 -1 0 -1
202 1 8.146811773894106 7.730603339176512 14.302946210000293 0 0 0
173 1 11.330674696103022 7.772450791754443 14.252525816626203 0 0 0
226 1 14.527933442482913 7.767630897850811 14.289161581197733 -1 0 0
236 1 8.114958368332823 10.874874706294861 14.314535707504206 0 0 0
238 1 11.345752009137376 10.940553882979675 14.221717102840099 0 0 0
141 1 14.618245815335024 10.799527441135016 14.408467973169264 -1 0 -1
250 1 12.919171302936283 15.6985853882176 15.804946707193587 0 0 0
109 1 9.754426226678422 15.699264088236756 15.816677650192464 0 -1 0
147 1 9.747070775674414 12.515133157784902 15.819236786648215 0 0 -1

Velocities

11 0 0 0
4 0 0 0
116 0 0 0
34 0 0 0
14 0 0 0
186 0 0 0
80 0 0 0
12 0 0 0
126 0 0 0
132 0 0 0
220 0 0 0
135 0 0 0
131 0 0 0
71 0 0 0
51 0 0 0
46 0 0 0
178 0 0 0
134 0 0 0
97 0 0 0
142 0 0 0
1 0 0 0
83 0 0 0
72 0 0 0
191 0 0 0
52 0 0 0
58 0 0 0
37 0 0 0
38 0 0 0
39 0 0 0
185 0 0 0
40 0 0 0
180 0 0 0
151 0 0 0
47 0 0 0
152 0 0 0
48 0 0 0
156 0 0 0
22 0 0 0
160 0 0 0
166 0 0 0
176 0 0 0
170 0 0 0
232 0 0 0
45 0 0 0
26 0 0 0
167 0 0 0
169 0 0 0
192 0 0 0
159 0 0 0
227 0 0 0
56 0 0 0
57 0 0 0
41 0 0 0
75 0 0 0
62 0 0 0
63 0 0 0
61 0 0 0
177 0 0 0
210 0 0 0
174 0 0 0
182 0 0 0
9 0 0 0
78 0 0 0
196 0 0 0
15 0 0 0
158 0 0 0
49 0 0 0
110 0 0 0
133 0 0 0
25 0 0 0
86 0 0 0
235 0 0 0
35 0 0 0
27 0 0 0
90 0 0 0
222 0 0 0
143 0 0 0
187 0 0 0
242 0 0 0
98 0 0 0
190 0 0 0
208 0 0 0
179 0 0 0
216 0 0 0
122 0 0 0
218 0 0 0
13 0 0 0
221 0 0 0
114 0 0 0
24 0 0 0
76 0 0 0
68 0 0 0
77 0 0 0
67 0 0 0
87 0 0 0
111 0 0 0
66 0 0 0
104 0 0 0
219 0 0 0
125 0 0 0
201 0 0 0
123 0 0 0
157 0 0 0
121 0 0 0
231 0 0 0
233 0 0 0
203 0 0 0
243 0 0 0
241 0 0 0
207 0 0 0
209 0 0 0
245 0 0 0
168 0 0 0
217 0 0 0
79 0 0 0
105 0 0 0
244 0 0 0
102 0 0 0
5 0 0 0
113 0 0 0
144 0 0 0
127 0 0 0
3 0 0 0
145 0 0 0
234 0 0 0
6 0 0 0
8 0 0 0
10 0 0 0
214 0 0 0
18 0 0 0
228 0 0 0
20 0 0 0
199 0 0 0
128 0 0 0
229 0 0 0
130 0 0 0
29 0 0 0
139 0 0 0
136 0 0 0
33 0 0 0
137 0 0 0
149 0 0 0
140 0 0 0
112 0 0 0
193 0 0 0
148 0 0 0
150 0 0 0
54 0 0 0
44 0 0 0
103 0 0 0
42 0 0 0
64 0 0 0
200 0 0 0
36 0 0 0
65 0 0 0
88 0 0 0
161 0 0 0
50 0 0 0
154 0 0 0
155 0 0 0
55 0 0 0
164 0 0 0
19 0 0 0
172 0 0 0
162 0 0 0
138 0 0 0
165 0 0 0
32 0 0 0
171 0 0 0
224 0 0 0
30 0 0 0
197 0 0 0
31 0 0 0
69 0 0 0
239 0 0 0
59 0 0 0
92 0 0 0
60 0 0 0
198 0 0 0
206 0 0 0
175 0 0 0
181 0 0 0
43 0 0 0
189 0 0 0
73 0 0 0
118 0 0 0
194 0 0 0
184 0 0 0
70 0 0 0
163 0 0 0
195 0 0 0
17 0 0 0
74 0 0 0
91 0 0 0
28 0 0 0
82 0 0 0
84 0 0 0
246 0 0 0
53 0 0 0
94 0 0 0
99 0 0 0
100 0 0 0
119 0 0 0
205 0 0 0
223 0 0 0
115 0 0 0
213 0 0 0
120 0 0 0
16 0 0 0
107 0 0 0
23 0 0 0
188 0 0 0
81 0 0 0
106 0 0 0
93 0 0 0
95 0 0 0
96 0 0 0
124 0 0 0
101 0 0 0
129 0 0 0
183 0 0 0
204 0 0 0
89 0 0 0
237 0 0 0
230 0 0 0
211 0 0 0
247 0 0 0
212 0 0 0
240 0 0 0
215 0 0 0
248 0 0 0
7 0 0 0
249 0 0 0
225 0 0 0
108 0 0 0
146 0 0 0
85 0 0 0
2 0 0 0
153 0 0 0
117 0 0 0
21 0 0 0
202 0 0 0
173 0 0 0
226 0 0 0
236 0 0 0
238 0 0 0
141 0 0 0
250 0 0 0
109 0 0 0
147 0 0 0
