LAMMPS data file via write_data, version 22 Jul 2025, timestep = 32049, units = metal

250 atoms
1 atom types

-2.5402597125002596e-05 15.82600340259715 xlo xhi
0 15.825978000000001 ylo yhi
0 15.825978000000001 zlo zhi

Masses

1 183.841

Atoms # atomic

11 1 1.7013573844596235 1.4293871874030124 1.585633416424643 0 0 0
4 1 4.866440852958612 1.4292823418556084 1.5855953838075063 0 0 0
116 1 3.283842207919594 3.0117897066448305 3.1681192091747676 0 0 0
144 1 6.449107666620207 15.67270819579196 0.00311886685262687 0 0 0
14 1 4.866510165190145 4.594479617908016 1.5854833822596104 0 0 0
196 1 3.2837176870774405 15.672527260026122 6.333463809612285 0 0 0
49 1 0.11868679407617454 12.507582417128107 0.0031035040938148053 0 0 0
126 1 1.70123778360315 7.7597433450405 1.585481964011535 0 0 0
34 1 6.448952351007948 15.672473078565535 6.333458300351181 0 -1 0
132 1 4.866444531199441 7.7596780100568825 1.585478540285723 0 0 0
145 1 6.4490287470779695 12.50744444159828 0.003105146024556742 0 0 0
78 1 0.11854147545358472 15.672604609396247 6.333538812909625 1 -1 0
1 1 0.11879250463673056 15.672820593319344 0.0031625768427993987 0 -1 0
75 1 0.11851498807474013 6.177013531299291 6.33333361806795 1 0 0
182 1 3.2836576208402275 12.507368787235077 6.333496223029399 0 0 0
46 1 1.701170401711659 10.924858807471326 1.5855883870580232 -1 0 0
63 1 6.448976219536451 6.176923905190539 6.333359482645829 0 0 0
134 1 4.86639603902034 10.924828019809558 1.5856239437698358 0 0 0
61 1 0.11839879193981344 9.342156402689023 6.333366066279189 0 0 0
62 1 3.283792814019082 6.177028912194548 6.333271155924189 0 0 0
142 1 1.7012293496745972 14.090095253799552 1.585733090205593 0 0 0
83 1 4.866390076812475 14.089996472947162 1.5857182025205947 0 0 0
210 1 6.449043327311102 9.342269372010135 6.333414183920564 0 0 0
157 1 0.11854367733632779 6.177079104772824 3.16811775757751 1 0 0
52 1 1.7011739466190543 1.4291833924879203 4.750869150943545 0 0 0
37 1 1.7011548240190917 4.59439654390362 4.750768625809196 0 0 0
38 1 0.1186659600362496 3.0119141431277567 3.1682681215936492 0 0 0
39 1 4.8664152991977065 4.594322145794079 4.750699210172087 0 0 0
185 1 4.866359016125068 1.4290624476822724 4.750799875157133 0 1 0
40 1 6.449002553674401 3.011735826422807 3.1681731404208544 0 0 0
180 1 1.7012757768298021 4.594517793558877 1.5854832720445384 0 0 0
151 1 1.7010814785088209 7.759647578390589 4.750696569801992 1 0 0
47 1 3.2838262865013084 6.1770634473440476 3.168026896923424 0 0 0
152 1 4.866365880186458 7.75959645212984 4.750729169967769 0 0 0
48 1 6.448995402696403 6.176975669519074 3.1681522771661395 0 0 0
156 1 0.1184886932232853 9.342229641571532 3.168171025588661 0 0 0
22 1 3.2837381286493734 9.342222230272101 3.1681502539501225 0 0 0
160 1 6.448969054352251 9.342195523756756 3.168214029587587 0 0 0
166 1 0.11850486953413517 12.507432762598812 3.168342050993778 0 0 0
176 1 1.7010214002680606 10.924772293804763 4.750843126662176 0 0 0
170 1 4.866322287036853 10.924775669073707 4.750874889163703 0 0 0
232 1 3.283728024916045 12.507386608036525 3.168293923556846 0 0 0
45 1 6.448950630015981 12.507374934514534 3.16829008984708 0 0 0
26 1 0.11860866437147069 15.672649407849132 3.168346500491476 0 -1 0
167 1 1.7010589800479936 14.089956876602184 4.750920439263028 0 0 0
169 1 3.2837353314701243 15.672532410650534 3.1682639430113317 0 0 0
192 1 4.866303869129022 14.089924555714557 4.750849531532197 0 0 0
159 1 6.448965417114762 15.67250766931064 3.1682911964353893 0 -1 0
174 1 0.11843641037043677 12.507418856194015 6.333503137743967 1 0 0
71 1 0.11861712573742426 3.011863100971761 6.3334413839356625 0 0 0
9 1 6.448988012717412 12.50737529730017 6.333496300960844 0 -1 0
57 1 3.2837777270008863 3.0117597946356214 6.33333435495529 0 0 0
177 1 3.2836888464376326 9.342203632482342 6.333358047057255 0 0 0
41 1 6.448928045188197 3.0116448497251342 6.3333691383306405 0 0 0
3 1 3.2839055010983116 15.672767077073617 0.0030945860308219724 0 -1 0
234 1 3.2838476563144 12.507527595354185 0.0030143963162583757 0 0 1
158 1 6.449026882505368 9.342255524664997 0.0029662128803984444 0 0 0
12 1 0.11878991348778734 6.177238078468939 0.002921777097855127 0 0 0
133 1 3.283884779143819 9.342367414892935 0.0028801720738016456 0 0 0
15 1 6.44916165571937 3.0119357450872357 0.002981062626641773 0 0 0
131 1 0.1186881163404323 9.342390896987807 0.002978004684225155 0 0 0
135 1 6.4491387015107815 6.1771226919979485 0.002880818559422238 0 0 0
2 1 0.1188273624885283 3.012075369252352 0.0030229028413248926 1 0 1
13 1 3.283998720481537 3.0120379332069764 0.0029244287362555355 0 0 0
127 1 3.2839610328463813 6.177199817735316 0.002828720734683543 0 0 0
51 1 1.7012340577498626 1.429281722990886 7.9160278432347635 0 0 0
86 1 0.11872637774983633 3.0119744987241037 9.498652955135364 0 0 0
35 1 3.283945060837054 3.011876181723443 9.49850356561392 0 0 0
90 1 6.449111527878235 3.0117630118776733 9.498549652640655 0 0 0
222 1 0.11862941371001481 6.177181908106699 9.498501497328844 0 0 0
80 1 4.866368505411766 14.089997556947676 7.916123630540034 0 -1 0
110 1 1.7015043252004787 4.594748557826036 14.246217968359169 1 0 0
187 1 3.2839363775011394 6.177173899719492 9.498340057529552 0 0 0
98 1 6.449182554226691 6.177087392765872 9.49840694870129 0 0 0
190 1 0.11851428647169003 9.342339023862404 9.498546272554966 1 0 0
208 1 3.283851593977189 9.342410147772734 9.498404358891841 0 0 0
209 1 6.449145617862099 9.342372770786817 9.498525180908446 0 0 0
216 1 0.11851423051400854 12.507536082631535 9.498724987493116 0 0 0
218 1 3.2837769717682237 12.507523236943438 9.498629993050605 0 0 0
220 1 6.4491199493999645 12.507543105040428 9.49871636774586 0 0 0
24 1 0.11864320770918431 15.672760348205834 9.498800011558732 0 -1 -1
76 1 3.283830752686103 15.672671211435503 9.498685516781174 0 -1 0
68 1 6.449112611039966 15.672593457273296 9.49869698409841 0 -1 0
77 1 1.7013869295593564 1.4294586523698483 11.081259141360425 0 0 0
67 1 4.866548539024011 1.4293478854356858 11.081201804816626 0 0 0
87 1 1.701381908547943 4.594625583053354 11.081070844654832 0 0 0
111 1 0.11888377657197248 3.012132916346458 12.663811877892979 0 0 0
66 1 4.866626115982511 4.594518047605617 11.080975432490119 0 0 0
102 1 3.2840482238943274 3.012023221675755 12.663697617745676 0 0 0
140 1 6.449244011582434 3.011941354764447 12.663736195945129 0 0 0
125 1 0.1187764314687825 6.177286602254881 12.66369741673402 1 0 0
201 1 1.7012760637313424 7.759859720845928 11.080973676996267 0 0 0
123 1 4.8665868671294525 7.7598198010914805 11.080914712638178 0 0 0
129 1 6.449252801235531 6.177178373629502 12.663595362414833 0 0 0
231 1 0.11869354021608632 9.342474100443738 12.663732185125015 0 0 0
233 1 3.2839398319762245 9.34248237244405 12.663592466291508 0 0 0
25 1 6.449172441170479 9.342400544355652 12.663672724233017 0 0 -1
243 1 1.7011765987281138 10.92502800666522 11.081175820801548 0 0 0
241 1 0.11870136414964878 12.507657824927612 12.663925425575952 1 0 0
207 1 3.283892489553123 12.50762346459665 12.66379614733317 0 0 0
200 1 4.866541340036221 10.925026847781925 11.081100756919858 0 0 0
245 1 6.449113286217967 12.50754176152778 12.663917103173914 0 0 0
217 1 1.7012518497062459 14.09023614247627 11.081298629757638 0 0 0
223 1 0.11877369296996879 15.672910281188752 12.663985214153744 1 -1 0
79 1 3.283967519771459 15.672851102098457 12.66386140355896 0 -1 0
105 1 4.866489943576687 14.090130173824903 11.08126961701203 0 -1 0
244 1 6.449185008849423 15.672752940416677 12.663960824191197 0 0 0
168 1 1.7014559442514205 1.4294814159342037 14.246447516029882 0 0 0
5 1 4.866581935309407 1.4294185969011877 14.246406036598076 0 0 -1
113 1 3.284036975147186 6.1772768632128425 12.66349613409613 0 0 0
114 1 4.866643726387148 4.594615842260955 14.246207089653627 0 0 0
122 1 1.7013726708443642 7.75987745816141 14.246204497183696 0 0 0
235 1 4.866567213091967 7.7598006126396 14.246188546666348 0 0 0
143 1 1.701309741409979 10.925051638598811 14.246337967718436 0 0 -1
203 1 4.866471098861596 10.924962181742636 14.246350478505766 0 0 0
242 1 1.7013442467855926 14.090235694168065 14.246514997404228 0 0 0
227 1 4.866409046579767 1.429130711784457 7.915984985090582 0 0 0
27 1 4.866494723421345 14.090164275292352 14.24649955596433 0 0 0
121 1 4.866409630991589 10.924918587800853 7.91597858722983 0 0 0
97 1 1.7010881618392617 14.090024182528992 7.916124846898231 0 0 0
178 1 4.86645371593591 7.7596867960970135 7.915847915442074 0 0 0
70 1 1.7012266937972895 4.594468547586862 7.915820961674354 0 -1 0
72 1 4.866466250832088 4.594373967462609 7.915826732025605 0 0 0
191 1 1.701029019657468 10.92484008924066 7.915998904577394 0 0 0
186 1 1.7011330150139734 7.759698295661898 7.91582447629237 0 0 0
6 1 8.031650055249333 1.4292511685568756 1.5856911698604401 0 0 0
8 1 11.19696381810881 1.4293387678749154 1.5858244814739606 0 0 0
10 1 14.362173558061613 1.4293984701703575 1.585746193893134 0 0 0
17 1 8.031635643018799 4.594412729296965 1.585591023244626 0 0 0
43 1 12.779320925654329 6.176954215708089 6.333462959973481 0 0 0
18 1 11.196883971403205 4.594472979695449 1.5857350656202307 0 0 0
29 1 9.614225695935293 9.342257298807361 0.003106563226544427 0 0 1
20 1 14.362163970221074 4.594600291849231 1.5856337522636208 0 0 0
128 1 8.031604520076792 7.759629191711466 1.5856243857360872 0 0 0
69 1 9.614249578575338 15.672517393714935 6.333554028846155 0 -1 0
229 1 11.196784014177846 7.7596245608312815 1.585717528290798 0 0 1
184 1 9.614302219602001 12.507516792938127 6.3335076214234896 0 0 0
130 1 14.362058216947233 7.759674869166927 1.5855941963389588 0 0 0
28 1 9.61430809860897 6.177086379466 0.003014887987258037 0 0 0
139 1 12.77949963809884 9.342335414108318 0.0031171103633446605 0 0 0
136 1 8.031552784500782 10.924774583470644 1.5857223240350626 0 0 0
163 1 12.77930739629293 12.507464817504397 6.333552717923403 0 0 0
137 1 11.196815176690869 10.924860057960101 1.5857623902853168 0 0 0
21 1 12.77955953052749 6.177144994155128 0.0030931711262454586 -1 0 0
164 1 14.362025879936171 10.924872975672674 1.5856887245166127 0 0 0
112 1 8.0316381666187 14.090029263372285 1.5857638427407856 0 0 0
224 1 11.19688394910663 14.090096293242052 1.585889522138023 0 -1 0
150 1 14.362112389240947 14.090175682069034 1.5858233726015372 0 0 0
54 1 8.031554729543409 1.4290733152970698 4.750841573124558 0 0 0
44 1 11.196838267562343 1.4291720211734429 4.750968749049685 0 0 0
56 1 14.362014888175091 1.429237383867857 4.750949631927763 -1 0 0
42 1 9.614215895228298 3.011753596024849 3.168344159390514 0 0 0
64 1 8.031550585580485 4.594262967728762 4.75084486939774 0 0 0
36 1 12.779443316851543 3.011858800623144 3.1683464451782166 -1 0 0
92 1 11.19674639813261 4.594301281734677 4.750920386664345 0 0 0
65 1 14.36196062152677 4.594416690301212 4.750868013013248 0 0 0
88 1 9.614169215831453 6.176964067743188 3.168295194245376 0 0 0
161 1 8.03155312965161 7.759553592694033 4.750875266890465 0 0 0
50 1 12.779326138383107 6.176972849887138 3.1682638707426753 0 0 0
181 1 11.19671358536614 7.75953522030388 4.750849078576312 0 0 0
155 1 14.361838900896466 7.7595911914316575 4.750796560170279 0 0 0
228 1 12.779612536430271 3.0120423996647063 0.003164194276314475 0 0 1
55 1 9.61415686623959 9.342177858314466 3.168288705134999 0 0 0
154 1 12.779300956299274 9.34219120546825 3.1682885382811063 0 0 0
172 1 9.61421858276567 12.507435914365505 3.1683324460315223 0 0 0
19 1 8.031570329097125 10.924791887472027 4.750905984732324 0 0 0
162 1 11.19679340703558 10.924827755309186 4.750876050935145 0 0 0
138 1 12.779379656832258 12.507482453259152 3.1683464903124676 0 0 0
165 1 14.361848999845925 10.924776108537971 4.750838950127308 0 0 0
32 1 9.614265133428146 15.672586609218964 3.168348489727137 0 -1 0
171 1 8.031606496417078 14.09000597429433 4.750875722825169 0 0 0
103 1 12.779508271025115 15.672714276266177 3.1683752969468904 -1 -2 0
30 1 11.196861558867457 14.090073317988784 4.750884366356327 0 0 0
197 1 14.361947697439488 14.090049700078614 4.750965925713493 0 -1 0
175 1 9.614152905410897 6.176893165828963 6.333498421615364 0 0 0
33 1 12.779436648645447 15.672644214831017 6.333590182069471 0 -1 0
194 1 12.779265140329656 9.34217795022693 6.333455200244836 0 0 0
118 1 9.614158808137821 9.342214610504028 6.333496455447584 0 0 0
59 1 9.61420428867653 3.011683443561667 6.333506065657979 0 0 0
60 1 12.77939863536582 3.011788447932896 6.333539705427438 0 0 0
146 1 9.614364840725026 3.0119357473654205 0.003106578132325662 0 1 0
147 1 9.614275744883923 12.507493443051972 0.003197087602191145 0 0 0
250 1 12.779609564177202 15.672817671704797 0.0032829267973971316 0 0 1
109 1 9.6143606078106 15.672721444458203 0.0032281856752447435 0 -1 1
148 1 12.779512917661846 12.507579343030887 0.0032263971935175364 0 0 0
53 1 9.61431914455092 3.0117632741958213 9.498728387397437 0 -1 0
94 1 12.779554451575429 3.01189209362698 9.49880062324198 0 0 0
214 1 11.196842896434557 10.92493739403825 7.9161769233451516 0 0 0
99 1 9.614304668047673 6.177012725902461 9.49863135047048 0 0 0
100 1 12.779465698303252 6.177069013167194 9.49868440134141 0 0 0
91 1 11.19688279643785 1.429219181587058 7.916247492265434 0 0 0
119 1 9.61432462315564 9.342345475833872 9.498716670137682 0 0 0
205 1 12.779386644410847 9.34233732911465 9.498694315332756 0 0 0
221 1 9.614339450329961 12.507557044048077 9.498890243780588 0 0 0
213 1 12.779437749179785 12.507599271875089 9.49890146700957 0 0 0
82 1 9.61438053026158 15.672646076294805 9.498904253717985 0 -1 0
84 1 12.77950830012014 15.672715195243798 9.498932627490598 0 -1 0
101 1 14.362174553199704 14.090274731716757 14.24663951624681 -1 -1 0
115 1 11.196994145529155 14.090207184188506 14.246741750362203 0 0 0
107 1 8.031805669483123 1.429281179695551 11.081359414911606 0 0 0
120 1 11.197043934764864 1.4293471321343567 11.081457594434626 0 0 0
58 1 12.77960824512349 15.67281575845364 12.664111747984927 0 0 0
188 1 14.362218813395247 1.4294424684780145 11.081425377945855 0 0 0
81 1 8.031804818592587 4.5944205826394695 11.081178203143669 0 0 0
106 1 9.61444055857381 3.011950848857863 12.663928643598624 0 0 0
23 1 12.779700914363515 3.0120239563601485 12.66398617879166 0 0 0
93 1 11.197023901548071 4.594495319776071 11.08130139240629 0 0 0
96 1 14.36223590928866 4.594631030767725 11.081258266880328 -1 0 0
104 1 8.031802800417234 7.7597743071942995 11.081102100659674 0 0 0
124 1 9.614405141419251 6.177130603634609 12.663798220274376 0 0 0
183 1 12.779643565704555 6.177206499454609 12.663862742174302 0 0 1
204 1 11.196916948077805 7.759722842126033 11.081269775610576 0 0 0
89 1 14.362123928863808 7.7597824700746845 11.0811979548646 0 0 0
237 1 9.61432345792814 9.34234212799433 12.663914946787031 0 0 0
230 1 12.779544162188783 9.342412062128547 12.663958934821947 0 0 0
211 1 8.031782939168071 10.925004839427395 11.081324732747685 0 0 0
247 1 9.614367658392325 12.50758402457373 12.664135346808191 0 0 0
212 1 11.19691380682558 10.92500636396462 11.081462708763661 0 0 0
240 1 12.779541919770216 12.507634140043791 12.664088856826845 0 0 0
215 1 14.362057266073425 10.925027833313736 11.081355515703008 0 0 0
248 1 8.031785060198276 14.09012819380954 11.081462384694921 0 0 0
7 1 9.61441603696118 15.672751338348693 12.66409096725205 0 -1 -1
249 1 11.196957421117833 14.090170127445605 11.08152604527891 0 0 0
225 1 14.362272455391151 1.4294966471048232 14.246568718194172 0 1 0
108 1 14.362120928980842 14.090257129665062 11.081455310297075 0 0 0
219 1 8.031807451798974 1.4293579812328632 14.246521018036614 0 0 0
85 1 11.19706200015088 1.4294013700463142 14.246641229235898 0 0 0
179 1 8.031696586815405 7.759641353506567 7.9159803526724 0 0 0
153 1 8.031827258284233 4.594554221136192 14.246341475922812 0 0 0
117 1 11.197023830666142 4.594589396265343 14.246516513868668 0 0 0
95 1 14.362256844604168 4.594701727868897 14.246446847924792 0 0 0
202 1 8.031736700146418 7.759703848430745 14.246352037198031 0 0 0
173 1 11.19695247278132 7.759728043096339 14.246498623863369 0 0 0
226 1 14.362194418558966 7.759815034502124 14.246403919812947 -1 0 0
236 1 8.031673132524098 10.924897522086102 14.24651604902301 0 0 0
238 1 11.196917231673376 10.924985258775116 14.246633349023432 0 0 0
141 1 14.362133006097586 10.925030726038388 14.246517310861606 -1 0 -1
246 1 8.031761997385985 14.090131529988044 14.246636811739453 0 0 0
74 1 11.19681181831566 4.594331688874856 7.916126043784199 0 0 0
206 1 14.362059594590999 4.594476610517965 7.9160281439025715 0 0 0
73 1 14.36190730600508 7.75964063449021 7.915984103841621 0 0 0
239 1 14.36207017630047 1.4292947550133515 7.916195419057175 0 0 0
31 1 8.031609253417988 1.4290822162390149 7.916128606824194 0 0 0
195 1 14.36185859620932 10.924829828781 7.916124710502806 0 0 0
199 1 11.19688094506067 14.090091584707453 7.916279182901673 0 0 0
189 1 11.196785560119642 7.759599167129154 7.91612269479165 0 0 0
198 1 8.031715773610742 14.090055610170346 7.91618020370736 0 0 0
16 1 14.361993500398066 14.09009430245076 7.9162473162840605 0 0 0
193 1 8.031694480106385 10.924914949275834 7.916051870187367 0 0 0
149 1 8.03161807716628 4.594271426495556 7.916003487857744 0 0 -1

Velocities

11 0 0 0
4 0 0 0
116 0 0 0
144 0 0 0
14 0 0 0
196 0 0 0
49 0 0 0
126 0 0 0
34 0 0 0
132 0 0 0
145 0 0 0
78 0 0 0
1 0 0 0
75 0 0 0
182 0 0 0
46 0 0 0
63 0 0 0
134 0 0 0
61 0 0 0
62 0 0 0
142 0 0 0
83 0 0 0
210 0 0 0
157 0 0 0
52 0 0 0
37 0 0 0
38 0 0 0
39 0 0 0
185 0 0 0
40 0 0 0
180 0 0 0
151 0 0 0
47 0 0 0
152 0 0 0
48 0 0 0
156 0 0 0
22 0 0 0
160 0 0 0
166 0 0 0
176 0 0 0
170 0 0 0
232 0 0 0
45 0 0 0
26 0 0 0
167 0 0 0
169 0 0 0
192 0 0 0
159 0 0 0
174 0 0 0
71 0 0 0
9 0 0 0
57 0 0 0
177 0 0 0
41 0 0 0
3 0 0 0
234 0 0 0
158 0 0 0
12 0 0 0
133 0 0 0
15 0 0 0
131 0 0 0
135 0 0 0
2 0 0 0
13 0 0 0
127 0 0 0
51 0 0 0
86 0 0 0
35 0 0 0
90 0 0 0
222 0 0 0
80 0 0 0
110 0 0 0
187 0 0 0
98 0 0 0
190 0 0 0
208 0 0 0
209 0 0 0
216 0 0 0
218 0 0 0
220 0 0 0
24 0 0 0
76 0 0 0
68 0 0 0
77 0 0 0
67 0 0 0
87 0 0 0
111 0 0 0
66 0 0 0
102 0 0 0
140 0 0 0
125 0 0 0
201 0 0 0
123 0 0 0
129 0 0 0
231 0 0 0
233 0 0 0
25 0 0 0
243 0 0 0
241 0 0 0
207 0 0 0
200 0 0 0
245 0 0 0
217 0 0 0
223 0 0 0
79 0 0 0
105 0 0 0
244 0 0 0
168 0 0 0
5 0 0 0
113 0 0 0
114 0 0 0
122 0 0 0
235 0 0 0
143 0 0 0
203 0 0 0
242 0 0 0
227 0 0 0
27 0 0 0
121 0 0 0
97 0 0 0
178 0 0 0
70 0 0 0
72 0 0 0
191 0 0 0
186 0 0 0
6 0 0 0
8 0 0 0
10 0 0 0
17 0 0 0
43 0 0 0
18 0 0 0
29 0 0 0
20 0 0 0
128 0 0 0
69 0 0 0
229 0 0 0
184 0 0 0
130 0 0 0
28 0 0 0
139 0 0 0
136 0 0 0
163 0 0 0
137 0 0 0
21 0 0 0
164 0 0 0
112 0 0 0
224 0 0 0
150 0 0 0
54 0 0 0
44 0 0 0
56 0 0 0
42 0 0 0
64 0 0 0
36 0 0 0
92 0 0 0
65 0 0 0
88 0 0 0
161 0 0 0
50 0 0 0
181 0 0 0
155 0 0 0
228 0 0 0
55 0 0 0
154 0 0 0
172 0 0 0
19 0 0 0
162 0 0 0
138 0 0 0
165 0 0 0
32 0 0 0
171 0 0 0
103 0 0 0
30 0 0 0
197 0 0 0
175 0 0 0
33 0 0 0
194 0 0 0
118 0 0 0
59 0 0 0
60 0 0 0
146 0 0 0
147 0 0 0
250 0 0 0
109 0 0 0
148 0 0 0
53 0 0 0
94 0 0 0
214 0 0 0
99 0 0 0
100 0 0 0
91 0 0 0
119 0 0 0
205 0 0 0
221 0 0 0
213 0 0 0
82 0 0 0
84 0 0 0
101 0 0 0
115 0 0 0
107 0 0 0
120 0 0 0
58 0 0 0
188 0 0 0
81 0 0 0
106 0 0 0
23 0 0 0
93 0 0 0
96 0 0 0
104 0 0 0
124 0 0 0
183 0 0 0
204 0 0 0
89 0 0 0
237 0 0 0
230 0 0 0
211 0 0 0
247 0 0 0
212 0 0 0
240 0 0 0
215 0 0 0
248 0 0 0
7 0 0 0
249 0 0 0
225 0 0 0
108 0 0 0
219 0 0 0
85 0 0 0
179 0 0 0
153 0 0 0
117 0 0 0
95 0 0 0
202 0 0 0
173 0 0 0
226 0 0 0
236 0 0 0
238 0 0 0
141 0 0 0
246 0 0 0
74 0 0 0
206 0 0 0
73 0 0 0
239 0 0 0
31 0 0 0
195 0 0 0
199 0 0 0
189 0 0 0
198 0 0 0
16 0 0 0
193 0 0 0
149 0 0 0
