LAMMPS data file via write_data, version 22 Jul 2025, timestep = 34709, units = metal

250 atoms
1 atom types

-0.020934104134434587 15.846912104134471 xlo xhi
0 15.825978000000001 ylo yhi
0 15.825978000000001 zlo zhi

Masses

1 183.841

Atoms # atomic

11 1 1.6689031105712002 1.4324686677486165 1.6050041459377193 0 0 0
4 1 4.839682409942346 1.427565065717225 1.5989661180154868 0 0 0
180 1 1.6688715877238092 4.596385283324059 1.6017728569412568 0 0 0
2 1 0.08010254520471358 3.018294668087899 0.02287298587120634 1 0 1
14 1 4.8434410882402394 4.590950237572933 1.5966979184110892 0 0 0
13 1 3.2557358862811325 3.0117660568911377 0.017190930018062746 0 0 0
15 1 6.42735333237664 3.007892335745035 0.011350021492949735 0 0 0
12 1 0.08053971584727787 6.179956030554382 0.021773962166518335 0 0 0
126 1 1.667996482422849 7.762889626639323 1.6029479790629613 0 0 0
132 1 4.8464305718678355 7.75690865552885 1.600637935952761 0 0 0
127 1 3.2551513234310363 6.178082172387652 0.021295628179774678 0 0 0
135 1 6.430844744992614 6.1753019225011725 0.016713303530941616 0 0 0
131 1 0.0763036330818285 9.34676982563687 0.02573339491747614 0 0 0
133 1 3.251842990261443 9.35070008593307 0.025155172650687282 0 0 0
158 1 6.42900884471738 9.345925189643983 0.019404348837447245 0 0 0
207 1 1.662047479161197 10.933206213698197 1.604795279128903 0 0 0
150 1 0.05318935503263501 12.537138046060882 0.03768199300268503 1 0 0
134 1 4.840903811278795 10.927012821243663 1.6017325708483408 0 0 0
142 1 3.255807035995975 12.51295345403305 0.022715596138219583 0 0 0
145 1 6.426156699992231 12.508654748417774 0.015117064467851209 0 0 0
46 1 1.6651430219226202 14.095944952799845 1.607815538106315 -1 0 0
1 1 0.08307323003088654 15.686003635001244 0.032060032858802115 0 -1 0
83 1 4.840396631233498 14.090610593707027 1.6014979303771664 0 0 0
3 1 3.2602428551647287 15.678836797778775 0.0237007136190924 0 -1 0
144 1 6.423636689477124 15.674273109555985 0.013838181576622113 0 0 0
52 1 1.6691175890009313 1.4290677292972558 4.77074851159861 0 0 0
185 1 4.8437877795573865 1.4239074859021925 4.766472210838999 0 1 0
37 1 1.6597344230412725 4.590052171708584 4.764268950203896 0 0 0
38 1 0.08304783042282199 3.013006178690208 3.1863092950298695 0 0 0
116 1 3.2512127337364527 3.0069375864552983 3.180489375708115 0 0 0
39 1 4.8166592529657954 4.578865606149951 4.753489174754615 0 0 0
40 1 6.425071513633024 2.99940510574454 3.173134419657461 0 0 0
157 1 0.08132370658149109 6.179914692864854 3.184908406069814 1 0 0
151 1 1.6638631729219115 7.761409941276169 4.763641078234468 1 0 0
47 1 3.255548573323459 6.175665310627042 3.1808744858151763 0 0 0
152 1 4.86915365510911 7.7339481716112495 4.744775309763094 0 0 0
48 1 6.453118071576232 6.152677485442016 3.167692775248823 0 0 0
156 1 0.07935268210583847 9.346025279739425 3.1850528158290934 0 0 0
22 1 3.2587450062636645 9.340841373593104 3.1798303447394534 0 0 0
160 1 6.430927603662477 9.343498450982242 3.181566150985098 0 0 0
166 1 0.07620923422281921 12.513502799716619 3.188687070315764 0 0 0
176 1 1.6688345508247397 10.926509857279719 4.759569097488653 0 0 0
170 1 4.842876614028151 10.931455744829835 4.765654415678789 0 0 0
232 1 3.253787582512421 12.510355560794537 3.184842965203421 0 0 0
45 1 6.426131675093126 12.508090414623938 3.1848314196527747 0 0 0
26 1 0.08032135706407414 15.676991018856093 3.192113550257507 0 -1 0
167 1 1.6675126119259582 14.093214762025251 4.769249877075043 0 0 0
169 1 3.25451493334307 15.672829794868402 3.1868192436754343 0 0 0
192 1 4.8420205567591506 14.092281523357537 4.769865390582019 0 0 0
159 1 6.426209958566028 15.668237660987351 3.1832101878818087 0 -1 0
71 1 0.08156697846115328 3.011425001504224 6.3537076216637 0 0 0
57 1 3.2574798866452066 3.0055220056774283 6.350911881742704 0 0 0
41 1 6.454337500745683 2.9909774293421982 6.328553144466458 0 0 0
75 1 0.06968053188745756 6.178205252469509 6.351466904421842 1 0 0
62 1 3.200139623382265 6.175600475850244 6.348388869785655 0 0 0
63 1 6.753328130610789 5.852164087534828 6.025880132026957 0 0 0
61 1 0.07416999415851815 9.345952768288448 6.3471744515786135 0 0 0
177 1 3.2773647274270203 9.324932010535656 6.306480685223179 0 0 0
210 1 6.432125972406121 9.400296880876741 6.351704804418929 0 0 0
174 1 0.08027560492185781 12.509856968472063 6.3443494833338505 1 0 0
182 1 3.2564569683094517 12.516685676590217 6.3484278740287365 0 0 0
9 1 6.429666123595826 12.520240508299278 6.356753067997344 0 -1 0
78 1 0.08105843388367726 15.674960019576602 6.35425672292113 1 -1 0
196 1 3.25728606534679 15.673999642327233 6.353575613558418 0 0 0
34 1 6.431002706214705 15.671165592453407 6.354693541886685 0 -1 0
178 1 5.336613059035652 7.265105881164897 7.440209786257233 0 0 0
72 1 4.869437141012246 4.568217983164612 7.906718735556354 0 0 0
191 1 1.6914014342938328 10.905830965391363 7.884364184973142 0 0 0
51 1 1.6694322150544258 1.4298864151913127 7.936017317717007 0 0 0
227 1 4.854021934242088 1.4192110067848636 7.937585251915807 0 0 0
86 1 0.07938011998598146 3.0111840995071506 9.518468956046352 0 0 0
70 1 1.664705103287333 4.590206119397968 7.934470936601205 0 -1 0
35 1 3.2605690047905505 3.005108416673594 9.513598483861346 0 0 0
190 1 0.04082256517572215 9.37078882675936 9.54320314863919 1 0 0
90 1 6.430627264422012 3.001448683485276 9.514810052223423 0 0 0
222 1 0.07366592656658762 6.1731832804899485 9.51750038488513 0 0 0
186 1 1.608676493396161 7.780693600384155 7.953417099414195 0 0 0
27 1 4.86067944516042 14.096280772552777 14.2562121602232 0 0 0
187 1 3.277776790134009 6.139360918470067 9.493423478017004 0 0 0
98 1 6.433093262625515 6.172994501223739 9.569359376446174 0 0 0
49 1 1.6408371342157575 10.955628319669538 14.289457852005818 0 0 -1
208 1 2.5634229989121433 10.050920859223009 10.231511007969344 0 0 0
248 1 3.9346404291636214 8.67317021926745 8.828131482856117 0 0 0
209 1 6.468636376391804 9.328209774156841 9.491553665498909 0 0 0
216 1 0.07565664988993406 12.514301720790757 9.460785575611604 0 0 0
235 1 4.840410873057506 7.764248845840789 14.273642573046821 0 0 0
218 1 3.238445256665168 12.555022567067084 9.539729531559784 0 0 0
242 1 1.7022362180755657 14.107057250265722 14.277075802090108 0 0 0
220 1 6.457750024194748 12.540736364585195 9.537922704036646 0 0 0
24 1 0.07629722947053251 15.679758728086705 9.51874082458847 0 -1 -1
97 1 1.6689556153310916 14.097412020465983 7.932552115971747 0 0 0
80 1 4.850718181190586 14.102371163068664 7.9469199931857055 0 -1 0
76 1 3.2559156723212808 15.680565589502361 9.520904196546867 0 -1 0
68 1 6.44807284039538 15.654797694685803 9.536268092478137 0 -1 0
77 1 1.6638126288749857 1.4314787370760182 11.104632937488773 0 0 0
67 1 4.850646461028724 1.420009745998196 11.097943246457406 0 0 0
87 1 1.6693137753296314 4.585725719416554 11.097191413204694 0 0 0
111 1 0.07603429472430065 3.0147864769777537 12.68483967127909 0 0 0
66 1 4.842321643325576 4.589100680876936 11.101312623422865 0 0 0
102 1 3.255068796916764 3.00958479172797 12.680423506509046 0 0 0
140 1 6.4256990390639075 3.0060808477896916 12.6792022297418 0 0 0
125 1 0.0791077739409486 6.169507923379607 12.682093997164221 1 0 0
201 1 1.6869638757646088 7.706971473969016 11.079385683205407 0 0 0
123 1 4.822226562402171 7.784888112739792 11.152708834352016 0 0 0
113 1 3.2546668004457304 6.172963448979587 12.686908593468475 0 0 0
129 1 6.427342037121435 6.178526647392199 12.689821312480174 0 0 0
231 1 0.07660473849940602 9.292042060421329 12.685413409934542 0 0 0
233 1 3.2346926562105818 9.367838040668547 12.73120210072686 0 0 0
25 1 6.43373537192582 9.35078352931528 12.686848919851318 0 0 -1
243 1 1.148892557039396 11.445677760876274 11.612929427790409 0 0 0
234 1 4.853725139529199 10.935947698230061 14.260754240193503 0 0 0
200 1 4.914803832732713 10.920844928326959 11.075992793816681 0 0 0
143 1 3.316040864833291 12.507002634088533 12.679137143723048 0 0 -1
245 1 6.461701263106139 12.533092558202574 12.658816449808928 0 0 0
217 1 1.6383752863485723 14.118863943879035 11.126683065418716 0 0 0
223 1 0.053351587281802934 15.692386740513431 12.709009361611141 1 -1 0
79 1 3.2594485141802507 15.678831780319339 12.683328894225115 0 -1 0
105 1 4.828063998595754 14.099271226764621 11.099101877449518 0 -1 0
244 1 6.446065300763365 15.655579361778376 12.659239061288776 0 0 0
168 1 1.6661022159780865 1.4351295559731412 14.267193180293141 0 0 0
5 1 4.84700507895329 1.4231178115440823 14.253879106115358 0 0 -1
110 1 1.6671959553301725 4.594748707883186 14.264734679174564 1 0 0
114 1 4.8410267191968614 4.5928018747747315 14.263047633373318 0 0 0
122 1 1.666058195780964 7.758447913225282 14.269878865237214 0 0 0
121 1 4.835522628676128 10.99991182473891 7.964048903019552 0 0 0
6 1 8.006483985364603 1.4248469094545704 1.5961526726397215 0 0 0
8 1 11.181463855576933 1.4347104186595419 1.6059888228627048 0 0 0
10 1 14.36582337385289 1.4351987959390524 1.60777010533741 0 0 0
17 1 8.028029023066193 4.580822444206184 1.5802682369319903 0 0 0
33 1 12.771842133556023 15.672713633058217 6.357723340214032 0 -1 0
18 1 11.191675901419774 4.601956825006409 1.5976022061754616 0 0 0
225 1 12.766995683802081 3.0280985448531426 0.022653971323536783 0 1 1
20 1 14.364389704506529 4.599678500848538 1.6028358196303314 0 0 0
128 1 8.017948844424735 7.759716060375895 1.5968258102456518 0 0 0
28 1 9.602646034495875 6.179571401193996 0.01319237542995885 0 0 0
229 1 11.188955245871735 7.763908730171387 1.6002213587503231 0 0 1
21 1 12.773215258322331 6.181890667330862 0.019797452599224597 -1 0 0
130 1 14.361215758590056 7.7639499504271985 1.6039159996884953 0 0 0
29 1 9.597491705165728 9.346938819829079 0.017293898691429156 0 0 1
139 1 12.764813502846268 9.343353756588677 0.024800256832974762 0 0 0
147 1 9.592439985414028 12.509299262899559 0.017579002909215803 0 0 0
136 1 8.012308882672878 10.926912054531376 1.6002290278216675 0 0 0
137 1 11.182770211875146 10.92647677796991 1.604664407100869 0 0 0
148 1 12.75494144524528 12.508658367844248 0.03279505033368486 0 0 0
164 1 14.355275374506824 10.930704826062918 1.6085712144002884 0 0 0
112 1 8.008927073349387 14.088015261260457 1.604205900377472 0 0 0
109 1 9.581169598619358 15.679649029862029 0.018880807540099468 0 -1 1
224 1 11.178625743240215 14.086572151977851 1.6069490725218385 0 -1 0
250 1 12.685523233346197 15.758386492320126 0.10225269938304746 0 0 1
212 1 14.344041269956714 14.107770296001977 1.624291014143206 0 0 0
54 1 8.028343310962413 1.4068971596881499 4.757216300631934 0 0 0
44 1 11.191755536665708 1.4248599417237682 4.7774709440320855 0 0 0
56 1 14.364657495253859 1.4301006150071347 4.774141036786678 -1 0 0
42 1 9.673744487523253 2.938238834341479 3.112255200251035 0 0 0
64 1 8.197603701292442 4.413212464989059 4.5901481586735935 0 0 0
36 1 12.79045602582242 3.0088038172867186 3.1824385639353316 -1 0 0
92 1 11.210659084500833 4.580612095904818 4.755118788112836 0 0 0
65 1 14.365046249936338 4.594360871410821 4.768515167584224 0 0 0
88 1 9.61459936347269 6.1809674113533015 3.172194170931675 0 0 0
161 1 8.031198165874425 7.784510875218372 4.752750013399778 0 0 0
50 1 12.780321310573804 6.179716619572964 3.183216581808607 0 0 0
181 1 11.19312242950771 7.760073462647799 4.765300645317752 0 0 0
155 1 14.360172291030919 7.7627742947991765 4.76854232595746 0 0 0
55 1 9.605626033538758 9.348316605476446 3.180626790295017 0 0 0
154 1 12.774217872174633 9.34542065142179 3.187297490637991 0 0 0
172 1 9.599832815478724 12.506597946957212 3.186782134766091 0 0 0
19 1 8.019401050695349 10.935674637311049 4.766195627201004 0 0 0
162 1 11.187438475376583 10.926562444263867 4.772157874549952 0 0 0
138 1 12.76970636306584 12.509745812806239 3.192686705437955 0 0 0
165 1 14.358965256242229 10.92785732305134 4.769676519612253 0 0 0
32 1 9.603787280209358 15.65853377900209 3.1828934939978484 0 -1 0
171 1 8.01517857126659 14.08781493470747 4.767191481626569 0 0 0
103 1 12.768733716503897 15.678232882790349 3.203630588295468 -1 -2 0
30 1 11.185737330300837 14.087830962015097 4.775906154163337 0 0 0
197 1 14.359156623593869 14.09293627432971 4.77440597063136 0 -1 0
59 1 9.614306230938597 2.9956465379252415 6.357176286767831 0 0 0
60 1 12.778646541956151 3.0078218028987327 6.355037377083168 0 0 0
175 1 9.620805116929828 6.152784294801488 6.326378273187992 0 0 0
43 1 12.77687063988949 6.175813540110459 6.349369467574765 0 0 0
118 1 9.604605866658686 9.345373889658083 6.350787651587257 0 0 0
194 1 12.770715689885321 9.346211451683235 6.353931927070486 0 0 0
184 1 9.602010482055865 12.50854298088174 6.35916394046899 0 0 0
163 1 12.770711278215085 12.509772292163573 6.356208381412064 0 0 0
69 1 9.603673733759111 15.66773333519865 6.3589737831474755 0 -1 0
146 1 9.601867687826266 3.0074311755964764 0.0012905130935361034 0 1 0
179 1 8.039462544886824 7.735326489021796 7.906482553938243 0 0 0
31 1 8.01831914690719 1.4128246154514204 7.943172845760333 0 0 0
91 1 11.181521734245749 1.4190578821280988 7.944920832473354 0 0 0
239 1 14.360167693586394 1.4307200888138174 7.93720165661707 0 0 0
53 1 9.605422708160903 3.0011173529675594 9.519580346736213 0 -1 0
149 1 8.031437128003665 4.575879081385033 7.95644756939258 0 0 -1
94 1 12.772205780577965 3.0114192265998474 9.51854708091584 0 0 0
74 1 11.192876622228702 4.589653868255447 7.932815874725409 0 0 0
206 1 14.360011120446494 4.594095485015239 7.935419923461311 0 0 0
99 1 9.605862995370767 6.175289221016385 9.514652853413283 0 0 0
101 1 14.157454382720413 14.290256588668925 14.454446814825555 -1 -1 0
100 1 12.771822589508092 6.1786215450558375 9.516682970577294 0 0 0
189 1 11.189065630807262 7.758518109077324 7.930000504590082 0 0 0
203 1 14.350116155963676 7.7650520082864665 7.937734510326115 0 0 0
119 1 9.606322777955542 9.346273277240138 9.51190036285625 0 0 0
73 1 12.765091120823248 9.351959952438639 9.52318141746267 0 0 0
221 1 9.581241196962653 12.530807505454204 9.537800824684478 0 0 0
193 1 8.020254109320915 10.941657388692073 7.944382782158412 0 0 0
214 1 11.179053094304281 10.935057151735382 7.943639940984685 0 0 0
213 1 12.761936766241131 12.513263688986028 9.519213960529012 0 0 0
195 1 14.354313392134044 10.928262163683629 7.933205569882784 0 0 0
82 1 9.578497516858894 15.651813967423891 9.53803710462026 0 -1 0
241 1 15.606394174668223 12.853189529835156 13.032892449710694 0 0 0
84 1 12.76199410424841 15.679254881258377 9.51477276192382 0 -1 0
199 1 11.175215599477205 14.090857866802715 7.94736647796954 0 0 0
16 1 14.352981178525377 14.09759026876319 7.92874361887137 0 0 0
107 1 8.01189944270808 1.4458239408699678 11.097044789595502 0 0 0
120 1 11.1717275917439 1.4226554290712325 11.09697580849988 0 0 0
188 1 14.35362908164483 1.4347712076553365 11.102359756374792 0 0 0
81 1 8.019233164954963 4.5906417391197865 11.106101058631 0 0 0
106 1 9.598850360359279 3.007267552911025 12.67791028688014 0 0 0
23 1 12.767467746460856 3.017112849670604 12.679942615064654 0 0 0
93 1 11.186299034486693 4.594827469001105 11.097532002204135 0 0 0
96 1 14.358565261336866 4.595023957976093 11.099513299764968 -1 0 0
104 1 8.01855532512146 7.760577399913964 11.10093081096409 0 0 0
124 1 9.60116516487909 6.1800085959120175 12.679691783193226 0 0 0
183 1 12.771463198681072 6.180413224119336 12.680138532399505 0 0 1
204 1 11.185117954305689 7.764915648603014 11.09839916619604 0 0 0
89 1 14.354800527876272 7.760275328489879 11.100148613197684 0 0 0
237 1 9.600738276828721 9.35151302873819 12.681657621295866 0 0 0
230 1 12.764884541261113 9.34847286749986 12.683775487648424 0 0 0
211 1 8.023776650783278 10.907519124641189 11.095598109345655 0 0 0
247 1 9.574147410546589 12.534072442630462 12.663182660525448 0 0 0
205 1 11.171814184547182 10.943854611289522 11.104726419167127 0 0 0
240 1 12.74387159873987 12.536985089426718 12.709352531595068 0 0 0
215 1 14.329549102330446 10.95794478342798 11.128970676116602 0 0 0
7 1 9.570387693152533 15.656112274494475 12.658487704107733 0 -1 -1
58 1 12.748896689552437 15.690493495859307 12.677348232402885 0 0 0
249 1 11.196595522942431 14.096373620539275 11.101053894902396 0 0 0
108 1 14.344828673674645 14.10755555365973 11.077970478827536 0 0 0
219 1 8.008348640314374 1.4200493810172357 14.24808707653009 0 0 0
85 1 11.170640532033936 1.4277900599880702 14.249838990842498 0 0 0
228 1 14.342536035223329 1.451097692049049 14.278714896921223 0 0 0
153 1 8.014278644073311 4.592832088726049 14.257564621979842 0 0 0
117 1 11.185587801253483 4.598602146290791 14.258801207197648 0 0 0
95 1 14.358521070148289 4.599403668515812 14.264782951138947 0 0 0
202 1 8.014837386128471 7.76398848772091 14.262436315606976 0 0 0
173 1 11.184694477515169 7.765019226059052 14.26210319547237 0 0 0
226 1 14.354386233188743 7.754703252175784 14.269060049404636 -1 0 0
236 1 8.013828596487262 10.938176986574684 14.253783115152896 0 0 0
238 1 11.17062799286327 10.938033996204945 14.260189832341934 0 0 0
141 1 14.339870411785071 10.90200634924442 14.281056368558692 -1 0 -1
246 1 8.008501611093276 14.093832174967881 14.282176898468997 0 0 0
115 1 11.147374577008414 14.108416038329402 14.267560015629302 0 0 0
198 1 8.016152452604311 14.092806293720674 7.917831829787482 0 0 0

Velocities

11 0 0 0
4 0 0 0
180 0 0 0
2 0 0 0
14 0 0 0
13 0 0 0
15 0 0 0
12 0 0 0
126 0 0 0
132 0 0 0
127 0 0 0
135 0 0 0
131 0 0 0
133 0 0 0
158 0 0 0
207 0 0 0
150 0 0 0
134 0 0 0
142 0 0 0
145 0 0 0
46 0 0 0
1 0 0 0
83 0 0 0
3 0 0 0
144 0 0 0
52 0 0 0
185 0 0 0
37 0 0 0
38 0 0 0
116 0 0 0
39 0 0 0
40 0 0 0
157 0 0 0
151 0 0 0
47 0 0 0
152 0 0 0
48 0 0 0
156 0 0 0
22 0 0 0
160 0 0 0
166 0 0 0
176 0 0 0
170 0 0 0
232 0 0 0
45 0 0 0
26 0 0 0
167 0 0 0
169 0 0 0
192 0 0 0
159 0 0 0
71 0 0 0
57 0 0 0
41 0 0 0
75 0 0 0
62 0 0 0
63 0 0 0
61 0 0 0
177 0 0 0
210 0 0 0
174 0 0 0
182 0 0 0
9 0 0 0
78 0 0 0
196 0 0 0
34 0 0 0
178 0 0 0
72 0 0 0
191 0 0 0
51 0 0 0
227 0 0 0
86 0 0 0
70 0 0 0
35 0 0 0
190 0 0 0
90 0 0 0
222 0 0 0
186 0 0 0
27 0 0 0
187 0 0 0
98 0 0 0
49 0 0 0
208 0 0 0
248 0 0 0
209 0 0 0
216 0 0 0
235 0 0 0
218 0 0 0
242 0 0 0
220 0 0 0
24 0 0 0
97 0 0 0
80 0 0 0
76 0 0 0
68 0 0 0
77 0 0 0
67 0 0 0
87 0 0 0
111 0 0 0
66 0 0 0
102 0 0 0
140 0 0 0
125 0 0 0
201 0 0 0
123 0 0 0
113 0 0 0
129 0 0 0
231 0 0 0
233 0 0 0
25 0 0 0
243 0 0 0
234 0 0 0
200 0 0 0
143 0 0 0
245 0 0 0
217 0 0 0
223 0 0 0
79 0 0 0
105 0 0 0
244 0 0 0
168 0 0 0
5 0 0 0
110 0 0 0
114 0 0 0
122 0 0 0
121 0 0 0
6 0 0 0
8 0 0 0
10 0 0 0
17 0 0 0
33 0 0 0
18 0 0 0
225 0 0 0
20 0 0 0
128 0 0 0
28 0 0 0
229 0 0 0
21 0 0 0
130 0 0 0
29 0 0 0
139 0 0 0
147 0 0 0
136 0 0 0
137 0 0 0
148 0 0 0
164 0 0 0
112 0 0 0
109 0 0 0
224 0 0 0
250 0 0 0
212 0 0 0
54 0 0 0
44 0 0 0
56 0 0 0
42 0 0 0
64 0 0 0
36 0 0 0
92 0 0 0
65 0 0 0
88 0 0 0
161 0 0 0
50 0 0 0
181 0 0 0
155 0 0 0
55 0 0 0
154 0 0 0
172 0 0 0
19 0 0 0
162 0 0 0
138 0 0 0
165 0 0 0
32 0 0 0
171 0 0 0
103 0 0 0
30 0 0 0
197 0 0 0
59 0 0 0
60 0 0 0
175 0 0 0
43 0 0 0
118 0 0 0
194 0 0 0
184 0 0 0
163 0 0 0
69 0 0 0
146 0 0 0
179 0 0 0
31 0 0 0
91 0 0 0
239 0 0 0
53 0 0 0
149 0 0 0
94 0 0 0
74 0 0 0
206 0 0 0
99 0 0 0
101 0 0 0
100 0 0 0
189 0 0 0
203 0 0 0
119 0 0 0
73 0 0 0
221 0 0 0
193 0 0 0
214 0 0 0
213 0 0 0
195 0 0 0
82 0 0 0
241 0 0 0
84 0 0 0
199 0 0 0
16 0 0 0
107 0 0 0
120 0 0 0
188 0 0 0
81 0 0 0
106 0 0 0
23 0 0 0
93 0 0 0
96 0 0 0
104 0 0 0
124 0 0 0
183 0 0 0
204 0 0 0
89 0 0 0
237 0 0 0
230 0 0 0
211 0 0 0
247 0 0 0
205 0 0 0
240 0 0 0
215 0 0 0
7 0 0 0
58 0 0 0
249 0 0 0
108 0 0 0
219 0 0 0
85 0 0 0
228 0 0 0
153 0 0 0
117 0 0 0
95 0 0 0
202 0 0 0
173 0 0 0
226 0 0 0
236 0 0 0
238 0 0 0
141 0 0 0
246 0 0 0
115 0 0 0
198 0 0 0
