LAMMPS data file via write_data, version 22 Jul 2025, timestep = 6701, units = metal

250 atoms
1 atom types

-0.021406279575747363 15.847384279575753 xlo xhi
0 15.825978000000001 ylo yhi
0 15.825978000000001 zlo zhi

Masses

1 183.841

Atoms # atomic

2 1 1.6972286294615215 1.6317160865973324 1.5029679106926757 0 0 0
4 1 4.861759155378396 1.618637869789391 1.5105299547361646 0 0 0
12 1 1.6833672520279805 4.787066303885981 1.5107996163292732 0 0 0
14 1 4.855407585319151 4.781583393275501 1.5077170991480657 0 0 0
126 1 1.6806948184669201 7.948212402896804 1.5089092880198438 0 0 0
158 1 4.853683006404351 7.948067879372948 1.5077903146375986 0 0 0
132 1 1.6848467046941815 11.112133213931596 1.5125446038105401 0 0 0
134 1 4.853897438441373 11.112207746409588 1.509754337735872 0 0 0
142 1 1.699913470794917 14.304695373019417 1.539502754796707 0 0 0
144 1 4.857425989233041 14.279973203069646 1.514132180919784 0 0 0
27 1 1.791225401254922 1.7257460400141809 4.7908727957654405 0 0 0
26 1 0.3305574739809323 0.26787532079797477 3.328473272756027 0 0 0
28 1 3.2904779216263154 0.05160014556288009 3.11303379892113 0 0 0
58 1 4.876367429275853 1.622330289090584 4.6833063399626385 0 0 0
159 1 6.447472137161 0.033789836048105454 3.095011066712627 0 0 0
37 1 1.6866597501966811 4.800710831343643 4.682808960325066 0 0 0
36 1 0.11166503629687237 3.217794261580645 3.112794331510104 0 0 0
38 1 3.2758125282938004 3.2058719360329975 3.09024506729386 0 0 0
39 1 4.85444662668527 4.780540676730611 4.662315405788798 0 0 0
40 1 6.448251246624348 3.1988998657059113 3.0898479988221976 0 0 0
180 1 0.09450494057785147 6.368398614054883 3.0952616162707676 0 0 0
47 1 3.2679981931774518 6.369589161330662 3.0898134970561384 0 0 0
48 1 6.442215329989983 6.364175380388807 3.088527683984804 0 0 0
151 1 1.6781377290464736 7.952547579842752 4.677780117137093 0 0 0
156 1 0.09652126262212678 9.521844745090045 3.098880062129495 0 0 0
152 1 4.852579622987056 7.948897733456071 4.669663716444847 0 0 0
22 1 3.267879950979231 9.53129850709781 3.0920632632827694 0 0 0
160 1 6.44143494479073 9.529824681764836 3.0926584927583707 0 0 0
166 1 0.10750594309451804 12.657466138590976 3.1110294669034597 0 0 0
157 1 1.6843913505012724 11.108107610767062 4.684713885632934 0 0 0
168 1 3.272923835611244 12.696566155999916 3.098117851779612 0 0 0
170 1 4.85589141567506 11.112156887830066 4.675241000733311 0 0 0
45 1 6.442148806408683 12.693471892935442 3.094255238590954 0 0 0
167 1 1.694764172911525 14.268872225041537 4.695967269088466 0 0 0
169 1 4.861920271569069 14.27615602226989 4.680108373401403 0 0 0
80 1 4.8556656825847915 14.273689554757173 7.84104287284529 0 -1 0
67 1 4.853656924574717 1.6013565662631295 7.839579828937252 0 0 0
52 1 3.2749692746942896 0.028462250030420938 6.267514860901354 0 0 0
53 1 6.449099479630507 0.02887484727020065 6.259632726555777 0 0 0
56 1 0.08858493232737233 3.204136278368046 6.266880199988106 0 0 0
57 1 3.292217748783511 3.222997651106839 6.283554548196383 0 0 0
72 1 4.805471637376037 4.731544964366605 7.790992053206536 0 0 0
41 1 6.452621805559158 3.195736643436005 6.256383969511584 0 0 0
61 1 0.089281420474042 6.37058746006276 6.259614707816306 0 0 0
62 1 3.2641292852877504 6.373775695127811 6.255715891586626 0 0 0
63 1 6.431666057623603 6.353694941531903 6.237166409404645 0 0 0
186 1 1.6715175559296498 7.950516943386048 7.839089765927883 0 0 0
176 1 0.08359733462877574 9.539778019741794 6.268104869635562 0 0 0
177 1 3.2638401749493635 9.531326837792095 6.25672060119689 0 0 0
187 1 4.8421368612269875 7.948846198344643 7.828916457347356 0 0 0
178 1 6.439508795336267 9.52766500550512 6.252663822184885 0 0 0
191 1 1.6737019054266984 11.111815188955633 7.841056169085281 0 0 0
182 1 3.2694353123963675 12.691814957578165 6.263391037425429 0 0 0
192 1 4.849692554335552 11.112839699476657 7.835249814624363 0 0 0
183 1 6.4453129583739495 12.692283178137595 6.258616055480959 0 0 0
51 1 0.103594872039573 0.042858545983830466 6.291138713651753 0 0 0
196 1 1.6788412881425603 14.276652377550276 7.847388518263283 0 0 0
35 1 1.6848734782140031 1.6197997236903487 7.861255183290282 0 0 0
71 1 1.6653763685348857 4.7792267034200435 7.839068134428474 0 0 0
174 1 0.08689693579504067 12.696510650870591 6.27656370686158 1 0 0
76 1 0.08485356454289394 0.02359485217107739 9.427080083353818 0 0 0
78 1 3.266070062848427 0.027871357311481302 9.427909955192689 0 0 0
68 1 6.442143076396247 0.027525730100483977 9.42129894645179 0 0 0
86 1 0.0883968509799425 3.1965504775454723 9.427925641874038 0 0 0
244 1 4.852996475307647 14.27561264940749 14.170450088858813 0 0 0
66 1 3.2636188967153994 3.194567062366873 9.431883182222697 0 0 0
90 1 6.43083462220011 3.1752688309749537 9.41163637036593 0 0 0
96 1 0.08754537506690074 6.364462579585474 9.421413401052794 0 0 0
97 1 3.242460407869382 6.352435967606911 9.411194974411385 0 0 0
98 1 6.293801718824667 6.218085153352043 9.277608829631001 0 0 0
206 1 0.08308337681096441 9.540196363496836 9.420680531623377 0 0 0
208 1 3.258040852676002 9.528265484199178 9.418190786211031 0 0 0
210 1 6.425491711947986 9.542067734347741 9.405439888641906 0 0 0
216 1 0.11553456341424934 12.693770034295273 9.421975632977286 0 0 0
218 1 3.26790609439092 12.692169929772547 9.423739206296213 0 0 0
220 1 6.433873405063085 12.69913325234697 9.416528556930503 0 0 0
77 1 1.677986405257395 1.612955998178878 11.007301019304485 0 0 0
101 1 0.0898550198648005 0.028789447248989016 12.568795613921564 0 0 0
79 1 4.851638820260292 1.6080601729372503 11.006582882214332 0 0 0
103 1 3.2662716410244355 0.03041337527247385 12.588739793982981 0 0 0
219 1 6.441049928598156 0.03147677945682992 12.5871536937969 0 0 0
87 1 1.672544295096304 4.7779484261517196 11.00671828329083 0 0 0
111 1 0.09093197134040305 3.1967813075816043 12.588732466461199 0 0 0
89 1 4.841078552744402 4.767879390975485 11.006882171093507 0 0 0
104 1 3.263873282678553 3.194598273720608 12.589409958067185 0 0 0
115 1 6.437180591353472 3.190105433870998 12.585437473130053 0 0 0
121 1 0.09188844448413826 6.363273598014238 12.58738224178676 0 0 0
122 1 3.258584912211627 6.359066357100497 12.585756411424818 0 0 0
202 1 4.830318299442072 7.922865715618203 10.9814498960302 0 0 0
123 1 6.421735309307957 6.344211187050451 12.599463118963453 0 0 0
175 1 7.748903744150735 7.664305116464362 10.724701467886083 0 0 0
231 1 0.09503774294668516 9.538481426668005 12.580925216385463 0 0 0
201 1 1.67328649137932 7.945791001339959 11.00139515363446 0 0 0
233 1 3.261982209546004 9.524419170779984 12.582368292082352 0 0 0
203 1 6.416928111427662 9.49800831394064 12.556570798590863 0 0 0
207 1 1.6761753190767308 11.110176888805697 11.00412361476844 0 0 0
241 1 0.08833333989909604 12.69310318318668 12.57100999563721 0 0 0
209 1 4.848458795253941 11.108175464250639 11.001136326502632 0 0 0
243 1 3.265176512051552 12.692541095272096 12.586756795243144 0 0 0
245 1 6.436992664259435 12.694483495104016 12.584189293624163 0 0 0
217 1 1.6759119707010848 14.274900328033475 11.0059459363945 0 0 0
105 1 4.852598954115418 14.274456014832781 11.006367511856704 0 -1 0
1 1 0.10370786131051858 0.042755753927571215 15.717313815941298 0 0 -1
102 1 1.6832361937862221 1.6181300604220874 14.164335840056749 0 0 0
3 1 3.2719605567443715 0.03612564683307957 15.755534651789791 0 0 -1
5 1 4.854866023545569 1.613197444902475 14.170652080779915 0 0 -1
146 1 6.441490107541405 0.032898852768782856 15.752579997564265 0 1 -1
113 1 1.6778936666152215 4.780844295308804 14.170851424250296 0 0 0
11 1 0.09655396822349632 3.201846326957834 15.755688324468677 0 0 -1
13 1 3.27045191802622 3.2010433428633074 15.750929201676511 0 0 -1
114 1 4.848613261907194 4.775019945388421 14.172466809135555 0 0 0
15 1 6.443224519743192 3.1961266096584313 15.751421675878946 0 0 -1
21 1 0.09360599815287998 6.3631236687857005 15.75301504244466 0 0 -1
127 1 3.2651626435229124 6.364833760083272 15.75165414947419 0 0 -1
235 1 4.847401815927838 7.94192493055481 14.16752818125917 0 0 0
23 1 6.435165631273094 6.357221930322357 15.758852006738481 0 0 -1
226 1 1.6783422206562681 7.947518900637428 14.167721315504519 0 0 0
131 1 0.09712514204723897 9.526452402031643 15.75114613724576 0 0 -1
133 1 3.2668296759385425 9.52984743780752 15.751536363538628 0 0 -1
135 1 6.437661726358961 9.527947657366992 15.75254198837539 0 0 -1
232 1 1.6846653446728923 11.116267294098407 14.171517590464777 0 0 0
49 1 0.12434142093255353 12.72001801959059 15.776640479620184 0 0 -1
234 1 4.849230920340195 11.106084940753917 14.164179459256674 0 0 0
143 1 3.270043501745912 12.699065552369575 15.757990005950965 0 0 -1
145 1 6.432623726105494 12.69005842341328 15.748818779865399 0 0 -1
242 1 1.6830676076472455 14.277191487338863 14.167961082158733 0 0 0
6 1 8.0307871860499 1.6156119416904673 1.5085559106806712 0 0 0
8 1 11.201977530695075 1.6191148215381788 1.5115850480947246 0 0 0
10 1 14.402662679979708 1.6325775222095251 1.538711425739812 0 0 0
16 1 8.030454195834416 4.780136339082797 1.5077990104885668 0 0 0
18 1 11.203151125328542 4.779989971169326 1.509801594065817 0 0 0
20 1 14.379233835256532 4.782642752639281 1.514387463587212 0 0 0
128 1 8.028725900446311 7.946361393268123 1.516829678194627 0 0 0
129 1 11.201515559450172 7.942145686605143 1.514863569072995 0 0 0
130 1 14.375139350997479 7.93723561027997 1.5101589056140325 0 0 0
136 1 8.02443168597718 11.110146450069024 1.5141517502555253 0 0 0
137 1 11.22480240280894 11.133641740687695 1.5683950057235396 0 0 0
140 1 14.371098398484943 11.055814569919857 1.5069896676378791 0 0 0
112 1 8.019072782488541 14.274656958342176 1.5089745762793807 0 0 0
224 1 12.748263473586054 0.04429227511454684 3.1087824547981904 0 0 0
148 1 11.144427082105851 14.268709003996692 1.5040823749256658 0 0 0
150 1 14.76363068075255 14.66550227821239 1.9077062997952507 0 0 0
149 1 13.360807456435964 13.265830485356052 0.4856636536069038 0 0 0
54 1 8.035408671536564 1.6132748988556473 4.677900575323534 0 0 0
44 1 11.198409132129267 1.6187251115795434 4.684686409811431 0 0 0
197 1 14.402986896820824 14.304169304990852 4.705104604929621 0 -1 0
185 1 14.366659538884697 1.626895077676004 4.694169313023397 0 1 0
42 1 9.617967971124713 3.198386384496259 3.092013813262717 0 0 0
227 1 12.79120059155151 3.2023785468863473 3.0977377273421367 0 0 0
43 1 11.203117429382122 4.7820447226311735 4.675400164063472 0 0 0
46 1 14.375375816575364 4.787052229257871 4.679995705560174 -1 0 0
88 1 9.616533038973115 6.363369903493899 3.0928577120286356 0 0 0
50 1 12.788903698452097 6.3638165286641675 3.0946014439148275 0 0 0
55 1 9.61728085993564 9.530559911177304 3.1052093967411656 0 0 0
153 1 8.0286066224804 7.946370365117125 4.674491443595131 0 0 0
154 1 11.202911399763977 7.948747365626315 4.679947045328661 0 0 0
164 1 12.790158702657777 9.525650819800152 3.102484372983232 0 0 0
155 1 14.373462937588654 7.950230340330664 4.6800292568899895 0 0 0
172 1 9.611921046096207 12.694173544652163 3.1016221598171905 0 0 0
161 1 8.030797144542731 11.111914124251998 4.679613341931583 0 0 0
138 1 12.816192553896077 12.721271844274858 3.123887999449414 0 0 0
162 1 11.206351960307373 11.115657802524407 4.693003628688175 0 0 0
165 1 14.377247312561568 11.112967893198402 4.689176336127215 0 0 0
32 1 9.607614993578938 0.034841830743075286 3.0979077990092403 0 0 0
171 1 8.032438345344804 14.273806088929078 4.6795389812347405 0 0 0
30 1 11.202682188754801 14.277196928618737 4.688636514618931 0 0 0
70 1 14.360047210284055 14.25958861380038 7.866848858362927 0 -1 0
34 1 9.625990165761804 0.022592714697979546 6.268082552211672 0 0 0
31 1 8.03276809538733 1.6071538328729058 7.839377497793769 0 0 0
69 1 11.202532474733676 1.6081117267712708 7.841573972803381 0 0 0
33 1 12.790938292502988 0.024899379512040878 6.276680785812937 0 0 0
239 1 14.375511388219453 1.6129037498234748 7.847493945602031 0 0 0
59 1 9.618098089756746 3.1948841709895395 6.257291899570222 0 0 0
189 1 11.20012379294844 7.949509095985575 7.836294442824848 0 0 0
60 1 12.786909366486377 3.199155346504587 6.263241070571747 0 0 0
74 1 11.204227958157514 4.776151298906047 7.83548888762739 0 0 0
75 1 14.372656337493579 4.781796226232105 7.841150863856968 0 0 0
64 1 8.031510263900188 4.779120563451839 4.670077887722185 0 0 0
179 1 8.008321510261352 7.925672601517704 7.823567769340113 0 0 0
65 1 12.787458812005204 6.367470588939532 6.258825667526523 0 0 0
118 1 9.619110386095997 9.532924914082733 6.266279017478959 0 0 0
181 1 9.614573041785235 6.361820265867226 6.2529424267016305 0 0 0
194 1 12.78814603415833 9.541758581290406 6.271898250295584 0 0 0
190 1 14.373997867015046 7.953929565039769 7.839021448337006 0 0 0
193 1 8.0304182658931 11.108769362736592 7.835940560772742 0 0 0
184 1 9.627142362055958 12.693014042318579 6.271433226804585 0 0 0
163 1 12.794470936119666 12.69980023755035 6.249897855503444 0 0 0
222 1 11.216562607393584 11.127250314163087 7.860663521148021 0 0 0
195 1 14.35573379806111 11.134480165996967 7.862900120714503 0 0 0
198 1 8.035159402482599 14.27504247882071 7.838627319343973 0 0 0
73 1 8.031417182592424 4.77036050547457 7.830463981113424 0 0 0
199 1 11.223625515124127 14.255253360254173 7.86296141907896 0 0 0
82 1 9.62590210414633 0.022156627834293684 9.42052615745391 0 0 0
84 1 12.788777555296653 0.05186691137228845 9.421973265079053 0 0 0
92 1 9.614717927360655 3.18958172693717 9.418661339312223 0 0 0
94 1 12.787187941800438 3.197949880245961 9.423893282075067 0 0 0
99 1 9.632555547627144 6.348882963986578 9.406176149313563 0 0 0
248 1 11.226028404076 14.317727173583549 14.183450085103877 0 0 0
100 1 12.794534144166427 6.357287072337007 9.417069284986688 0 0 0
212 1 9.597071815927508 9.510654763859428 9.402970261814303 0 0 0
214 1 12.792413974236409 9.511310941099142 9.415600218116696 0 0 0
223 1 9.594071046449814 12.697439345507611 9.415193757666742 0 0 0
107 1 9.623865002788568 0.03359246962895246 12.579944375254245 0 0 0
81 1 8.02779118352331 1.6090637987994625 11.001166685499367 0 0 0
83 1 11.200858071165399 1.6106269097449832 11.003809879059222 0 0 0
109 1 12.788117523521775 0.026842792598930486 12.570105989518561 0 0 0
188 1 14.374154956497511 1.6101695706746526 11.005650459043888 0 0 0
250 1 14.37295314910161 14.273450470929241 14.099368895150647 0 0 0
117 1 9.610867960010252 3.193437364599171 12.581977048664966 0 0 0
85 1 12.787415596732563 3.195777471473685 12.58665681829272 0 0 0
93 1 11.19946903025049 4.7754997829572705 11.001621571417534 0 0 0
95 1 14.373426155877402 4.779194344573078 11.006529961270953 0 0 0
124 1 9.586043611926298 6.341106751786126 12.557570433330394 0 0 0
125 1 12.790020112005909 6.360030567886235 12.584784902558516 0 0 0
237 1 9.170770141650557 9.085434036841304 12.144189889555014 0 0 0
204 1 11.249747022694049 7.945569884594253 10.997799620384324 0 0 0
230 1 12.856753299977784 9.548974398982947 12.58328147798571 0 0 0
205 1 14.386584125746575 7.948896332160799 11.000564258166483 0 0 0
211 1 8.024312704473678 11.157033167572793 10.995346863968184 0 0 0
247 1 9.631771300489573 12.760367125827441 12.580645277458709 0 0 0
213 1 11.197123884781325 11.107787314903286 10.938548667176331 0 0 0
240 1 12.763994131521516 12.668711649239942 12.547827591411686 0 0 0
215 1 14.364727264341118 11.131527735881294 10.976528287369037 0 0 0
221 1 8.029409397592957 14.28734985465027 10.999993506538688 0 0 0
249 1 11.220581412175342 14.264485005048028 10.976074079858233 0 0 0
225 1 14.354706857261107 14.253956072278807 10.970897501190187 0 0 0
106 1 8.029703072443969 1.6135411649719251 14.167203184689473 0 0 0
7 1 9.612207304973968 0.03558998626299733 15.750045705048477 0 0 -1
108 1 11.206262589593226 1.6191989734736008 14.170414818567163 0 0 0
9 1 12.812845714330386 0.0632490257079268 15.774418865920964 0 0 -1
110 1 14.376345198765351 1.6176687947320996 14.167609222914026 0 0 0
17 1 9.616361683107751 3.1975275278936173 15.751123634620813 0 0 -1
116 1 8.024392150997791 4.774361098572447 14.16724264315148 0 0 0
119 1 11.197132576689894 4.776149082877005 14.164351234282952 0 0 0
19 1 12.793696021038555 3.1999943881073762 15.75769676641805 0 0 -1
120 1 14.374752540886243 4.779144944925048 14.17067895408598 0 0 0
24 1 9.614688660165116 6.359753543941843 15.752908394241473 0 0 -1
228 1 8.016934197898568 7.934639125997702 14.214325360560272 0 0 0
25 1 12.785924684002664 6.354883403602948 15.749631089624366 0 0 -1
229 1 11.178605308727274 7.914101822335355 14.142211785384275 0 0 0
29 1 9.633652458585209 9.547179572965959 15.797827160038137 0 0 0
139 1 12.76816456082464 9.47190864602153 15.728458343717023 0 0 -1
173 1 10.589572510296922 10.498968214205933 13.520067185850984 0 0 0
200 1 14.380291035269908 7.941846848603601 14.167104623631374 0 0 0
147 1 9.558659230274415 12.67011372318809 15.725654455446138 0 0 -1
238 1 11.956857660344337 11.863754657032834 14.945622291129853 0 0 0
141 1 14.417512364509598 11.137383804041214 14.185918356841585 -1 0 -1
246 1 8.023497046047135 14.280245407608765 14.166450781362515 0 0 0
91 1 8.005750347803792 4.75981828844262 10.98153855015382 0 0 0
236 1 7.995783872832088 11.085701977334185 14.140018015954073 0 0 0

Velocities

2 0 0 0
4 0 0 0
12 0 0 0
14 0 0 0
126 0 0 0
158 0 0 0
132 0 0 0
134 0 0 0
142 0 0 0
144 0 0 0
27 0 0 0
26 0 0 0
28 0 0 0
58 0 0 0
159 0 0 0
37 0 0 0
36 0 0 0
38 0 0 0
39 0 0 0
40 0 0 0
180 0 0 0
47 0 0 0
48 0 0 0
151 0 0 0
156 0 0 0
152 0 0 0
22 0 0 0
160 0 0 0
166 0 0 0
157 0 0 0
168 0 0 0
170 0 0 0
45 0 0 0
167 0 0 0
169 0 0 0
80 0 0 0
67 0 0 0
52 0 0 0
53 0 0 0
56 0 0 0
57 0 0 0
72 0 0 0
41 0 0 0
61 0 0 0
62 0 0 0
63 0 0 0
186 0 0 0
176 0 0 0
177 0 0 0
187 0 0 0
178 0 0 0
191 0 0 0
182 0 0 0
192 0 0 0
183 0 0 0
51 0 0 0
196 0 0 0
35 0 0 0
71 0 0 0
174 0 0 0
76 0 0 0
78 0 0 0
68 0 0 0
86 0 0 0
244 0 0 0
66 0 0 0
90 0 0 0
96 0 0 0
97 0 0 0
98 0 0 0
206 0 0 0
208 0 0 0
210 0 0 0
216 0 0 0
218 0 0 0
220 0 0 0
77 0 0 0
101 0 0 0
79 0 0 0
103 0 0 0
219 0 0 0
87 0 0 0
111 0 0 0
89 0 0 0
104 0 0 0
115 0 0 0
121 0 0 0
122 0 0 0
202 0 0 0
123 0 0 0
175 0 0 0
231 0 0 0
201 0 0 0
233 0 0 0
203 0 0 0
207 0 0 0
241 0 0 0
209 0 0 0
243 0 0 0
245 0 0 0
217 0 0 0
105 0 0 0
1 0 0 0
102 0 0 0
3 0 0 0
5 0 0 0
146 0 0 0
113 0 0 0
11 0 0 0
13 0 0 0
114 0 0 0
15 0 0 0
21 0 0 0
127 0 0 0
235 0 0 0
23 0 0 0
226 0 0 0
131 0 0 0
133 0 0 0
135 0 0 0
232 0 0 0
49 0 0 0
234 0 0 0
143 0 0 0
145 0 0 0
242 0 0 0
6 0 0 0
8 0 0 0
10 0 0 0
16 0 0 0
18 0 0 0
20 0 0 0
128 0 0 0
129 0 0 0
130 0 0 0
136 0 0 0
137 0 0 0
140 0 0 0
112 0 0 0
224 0 0 0
148 0 0 0
150 0 0 0
149 0 0 0
54 0 0 0
44 0 0 0
197 0 0 0
185 0 0 0
42 0 0 0
227 0 0 0
43 0 0 0
46 0 0 0
88 0 0 0
50 0 0 0
55 0 0 0
153 0 0 0
154 0 0 0
164 0 0 0
155 0 0 0
172 0 0 0
161 0 0 0
138 0 0 0
162 0 0 0
165 0 0 0
32 0 0 0
171 0 0 0
30 0 0 0
70 0 0 0
34 0 0 0
31 0 0 0
69 0 0 0
33 0 0 0
239 0 0 0
59 0 0 0
189 0 0 0
60 0 0 0
74 0 0 0
75 0 0 0
64 0 0 0
179 0 0 0
65 0 0 0
118 0 0 0
181 0 0 0
194 0 0 0
190 0 0 0
193 0 0 0
184 0 0 0
163 0 0 0
222 0 0 0
195 0 0 0
198 0 0 0
73 0 0 0
199 0 0 0
82 0 0 0
84 0 0 0
92 0 0 0
94 0 0 0
99 0 0 0
248 0 0 0
100 0 0 0
212 0 0 0
214 0 0 0
223 0 0 0
107 0 0 0
81 0 0 0
83 0 0 0
109 0 0 0
188 0 0 0
250 0 0 0
117 0 0 0
85 0 0 0
93 0 0 0
95 0 0 0
124 0 0 0
125 0 0 0
237 0 0 0
204 0 0 0
230 0 0 0
205 0 0 0
211 0 0 0
247 0 0 0
213 0 0 0
240 0 0 0
215 0 0 0
221 0 0 0
249 0 0 0
225 0 0 0
106 0 0 0
7 0 0 0
108 0 0 0
9 0 0 0
110 0 0 0
17 0 0 0
116 0 0 0
119 0 0 0
19 0 0 0
120 0 0 0
24 0 0 0
228 0 0 0
25 0 0 0
229 0 0 0
29 0 0 0
139 0 0 0
173 0 0 0
200 0 0 0
147 0 0 0
238 0 0 0
141 0 0 0
246 0 0 0
91 0 0 0
236 0 0 0
