LAMMPS data file via write_data, version 22 Jul 2025, timestep = 44743, units = metal

250 atoms
1 atom types

-0.02132023444814943 15.84729823444821 xlo xhi
0 15.825978000000001 ylo yhi
0 15.825978000000001 zlo zhi

Masses

1 183.841

Atoms # atomic

11 1 1.730497801716388 1.4237947344571615 1.6076106454344063 0 0 0
4 1 4.901416091475489 1.4112562375119975 1.6015649323021306 0 0 0
180 1 1.7185617839735965 4.586102208508366 1.6043147264232225 0 0 0
2 1 0.1412118796222266 3.0130760976109805 0.021771880671137184 1 0 1
14 1 4.8997531731539645 4.574393030952989 1.598728132858989 0 0 0
13 1 3.3132703923550286 2.996563233873765 0.020624564369711305 0 0 0
15 1 6.487277840521072 2.9947613368967074 0.01930091033759545 0 0 0
131 1 1.7698916559916704 7.722536778549787 1.621399756204994 0 0 0
12 1 0.12611456747112282 6.180429432566977 0.046358559883588994 1 0 -1
132 1 4.910988602343342 7.736111389792458 1.5970668753796922 0 0 0
127 1 3.3131354601899408 6.153691345130341 0.020129671148757487 0 0 0
135 1 6.489656537844156 6.159229509217051 0.01721778498152759 0 0 0
141 1 0.1438270313332629 9.271768867757253 0.07240438413749513 0 0 0
133 1 3.3236906505264407 9.312042223816823 0.019730461065892622 0 0 0
158 1 6.496251246381991 9.321651704114354 0.019606989609504164 0 0 0
207 1 1.8882296682306334 10.682345605420473 1.80597633251371 0 0 0
150 1 0.4996293412057995 12.152266510074886 0.3582137962150708 1 0 0
134 1 4.9252561227766805 10.889412176846102 1.6181284291882034 0 0 0
142 1 3.3320899305786407 12.460176138555346 0.04888458245540615 0 0 0
145 1 6.492166449099632 12.485739387675178 0.02402304176351128 0 0 0
46 1 1.7433820757934422 14.105720872897372 1.6212639222906315 -1 0 0
1 1 0.14165889353395625 15.709272821693414 0.02107207823805601 0 -1 0
83 1 4.906454555144611 14.068915567187958 1.607157898125635 0 0 0
3 1 3.3191239015195384 15.654648991082615 0.023163922899846753 0 -1 0
144 1 6.487209917627109 15.654619494139538 0.020900973633792504 0 0 0
52 1 1.72496154673791 1.4122603753647835 4.767239862656084 0 0 0
185 1 4.897530802390618 1.4108346650687353 4.764208957056313 0 1 0
37 1 1.7141683669611125 4.582108489503199 4.758850144919666 0 0 0
38 1 0.13905730512536654 3.001371796013372 3.1858577394336574 0 0 0
116 1 3.311327743130528 2.994524366934151 3.183477829350992 0 0 0
152 1 4.8941234087128755 4.571331967954435 4.761934939783517 0 0 0
40 1 6.485420362566475 2.9948529924657015 3.178458783204381 0 0 0
126 1 0.12059668044172801 6.176595524623043 3.165980819790657 0 0 0
157 1 1.7111321999266136 7.7375917898664754 4.760733116013373 1 0 0
47 1 3.3142467355223872 6.1419670992752575 3.190626902154157 0 0 0
212 1 4.903496666919359 7.73847141559778 4.770203865566308 0 0 0
48 1 6.485916885911889 6.16289581322677 3.169554624136947 0 0 0
156 1 0.10191036964934609 9.276943895465688 3.180171756424469 0 0 0
22 1 3.3973375874303775 9.241360819295991 3.2690367980009034 0 0 0
160 1 6.50837344545057 9.320050559149994 3.1905282303474647 0 0 0
166 1 0.16565836799926426 12.455367871579607 3.200514748293688 0 0 0
176 1 1.7336662993416625 10.880083192236953 4.776864879344509 0 0 0
170 1 4.906518329761197 10.91266799965582 4.772762540742867 0 0 0
232 1 3.3208332463487045 12.483055630298766 3.190424583362728 0 0 0
45 1 6.494619907314078 12.489341978917883 3.187725164080825 0 0 0
26 1 0.14284625083696623 15.655221819426997 3.191061072702175 0 -1 0
167 1 1.7305478561454217 14.066225215833533 4.770786994861239 0 0 0
169 1 3.3197526829043453 15.6586462073003 3.1911652992532344 0 0 0
192 1 4.90167894734996 14.071249470613113 4.7678625242648405 0 0 0
159 1 6.4891325511734435 15.65509141072279 3.1840831322587566 0 -1 0
71 1 0.13752514816211844 2.996139424479574 6.346245033660078 0 0 0
57 1 3.304482877465305 2.9962474406691078 6.344342035370914 0 0 0
41 1 6.473288680910347 2.9930705707712892 6.335037473106605 0 0 0
75 1 0.1374082760455245 6.159576132357279 6.34402203083083 1 0 0
72 1 3.2937550270293317 6.1656092733247165 6.343262257530056 0 0 0
63 1 6.4135198204216115 6.235571380587222 6.274060787463303 0 0 0
61 1 0.1391958496485598 9.320553814412333 6.350435925570048 0 0 0
177 1 3.3160547811185985 9.319255577394136 6.363887502506217 0 0 0
19 1 6.48536097582601 9.340679406538703 6.3461393883033015 0 0 0
174 1 0.14289830446918975 12.482410460332748 6.348639681901974 1 0 0
182 1 3.3142225627419015 12.486616425237935 6.351815884090572 0 0 0
9 1 6.488776023261974 12.492302375455068 6.3498990367022445 0 -1 0
78 1 0.14070989869750508 15.65374027226354 6.347531001284577 1 -1 0
196 1 3.312138966307976 15.654282783306105 6.349607389356895 0 0 0
34 1 6.481890829441577 15.651790457736432 6.343427235103654 0 -1 0
149 1 7.892499952838033 4.761534827246538 7.7481316530419715 0 0 -1
51 1 1.7268243960950638 1.4121347132108721 7.930472311120224 0 0 0
227 1 4.893638734830663 1.4148222829768304 7.927276512538014 0 0 0
86 1 0.15009040984939284 2.9958060329139475 9.515511628972497 0 0 0
27 1 4.903458125203372 14.066334187711666 14.269719998216502 0 0 0
67 1 3.3099566703915055 2.998533091665774 9.512152280901638 0 0 0
242 1 1.7526980671799008 14.041157559056492 14.294208638827287 0 0 0
55 1 6.467099135409362 3.021652184594369 9.488775372680493 0 0 0
186 1 1.7214288114617189 7.742182914272905 7.934647501256731 0 0 0
222 1 0.1392904318181643 6.160734649064198 9.517213755755083 0 0 0
178 1 3.3064514035351285 6.16334806069038 9.516278806656327 0 0 0
210 1 4.89508823579706 7.747532826276216 7.938564859701268 0 0 0
98 1 6.473796639576616 6.174092204827645 9.51769434922218 0 0 0
203 1 0.1398534162424226 9.323094178152768 9.517420760351435 1 0 0
248 1 3.313247504238325 9.324415888241917 9.518379354949664 0 0 0
209 1 6.48572175484056 9.33095737776324 9.51630982785564 0 0 0
216 1 0.14160615092416537 12.487206142080025 9.50584210125203 0 0 0
191 1 1.7278119994305912 10.904497866639572 7.934293206112672 0 0 0
218 1 3.3150344574492046 12.489643974789491 9.51647074913221 0 0 0
121 1 4.900734843045084 10.910798143979436 7.9362333121189135 0 0 0
220 1 6.487341711215998 12.4910593527184 9.51654904443983 0 0 0
24 1 0.1473450872358447 15.654608434236051 9.509499016785385 0 -1 -1
97 1 1.7281572613579603 14.07079150205868 7.930940664436829 0 0 0
76 1 3.3150657449793206 15.655414776470144 9.514788672502087 0 -1 0
80 1 4.899299923637028 14.072884401022229 7.9324825353192985 0 -1 0
107 1 6.482677890581688 15.65707335820731 9.511714909347447 0 -1 0
77 1 1.737846855102992 1.4106454606899874 11.101012898278285 0 0 0
79 1 4.897988537025322 1.4178566231377498 11.093441208043547 0 0 0
187 1 1.7269776845894351 4.579577425971957 11.100631939529858 0 0 0
87 1 0.14618001208795872 3.0041322164960236 12.684419689360572 0 0 0
102 1 3.313439468436016 2.997594091397679 12.682759095512587 0 0 0
140 1 4.894300533026116 4.582390603706745 11.096412112337863 0 0 0
5 1 6.483242378726157 2.9990944666663144 12.679785288276449 0 0 -1
125 1 0.1414844107092909 6.161493279529338 12.689320265984692 1 0 0
201 1 1.725102555458656 7.74101611010038 11.10255531053284 0 0 0
123 1 4.898369200082237 7.744766493016045 11.100451075176453 0 0 0
113 1 3.3115790312993294 6.160105160268177 12.683767545794936 0 0 0
129 1 6.483106642523482 6.165981188904381 12.68480723022746 0 0 0
231 1 0.14388064937993064 9.317330700912539 12.689801119601265 0 0 0
233 1 3.319364702845594 9.316281406752857 12.679778134710435 0 0 0
25 1 6.490102859234044 9.325126703354863 12.68187110569501 0 0 -1
190 1 1.7321662399175322 10.900387646357407 11.092674821048872 1 0 0
208 1 0.1436073163858438 12.48415083911612 12.633133113122199 0 0 0
200 1 4.902070054629556 10.90766932103181 11.100491506939841 0 0 0
143 1 3.3179102847438617 12.48351676839581 12.685264992258789 0 0 -1
245 1 6.487675134661222 12.488913447132628 12.682441461785894 0 0 0
217 1 1.7328859624185815 14.069845895795021 11.096184053878115 0 0 0
223 1 0.18732567209181591 15.63138780464086 12.706001079648754 1 -1 0
105 1 4.900921863593203 14.072378034191914 11.099393755907547 0 -1 0
81 1 3.3205323188298155 15.650409573316288 12.686352940527486 0 0 0
244 1 6.482112971010658 15.660078174108767 12.676662216587719 0 0 0
111 1 1.7321797873829121 1.4175074298120467 14.265823516219424 0 0 0
31 1 4.9008999108420115 1.4123741331942825 14.263435651281931 0 1 0
110 1 1.721008681303089 4.587018198765819 14.272789079496613 1 0 0
114 1 4.899075055098825 4.577175000263024 14.26299676526403 0 0 0
122 1 1.7229665391985889 7.735272441425205 14.27768920353517 0 0 0
235 1 4.90272559273522 7.739652409964851 14.264148992336649 0 0 0
49 1 1.7397329666500179 10.876278530122566 14.244431566848679 0 0 -1
234 1 4.907004263252394 10.901701560565085 14.267129674500472 0 0 0
168 1 4.875629520024206 4.592971779885723 7.9168967914500366 0 0 0
70 1 1.7214005173926532 4.579172084846106 7.929905803169043 0 -1 0
146 1 8.074745518783406 1.4129528345716134 1.6030991875081255 0 1 0
8 1 11.252149963120674 1.4141388218853392 1.6133388065807563 0 0 0
106 1 14.423211404171072 1.41656825785027 1.60835469468972 0 1 0
17 1 8.076835128919686 4.580255236681928 1.5988452912520474 0 0 0
18 1 9.663628771874528 2.9995376357722545 0.03217146266371897 0 0 0
243 1 11.260425636133062 4.591496770868691 1.603651306951489 0 0 0
10 1 12.836406690801159 3.0100405739961826 0.028008749644767926 0 0 0
225 1 14.422823654355883 4.565447987365286 1.604645804923798 0 1 1
128 1 8.079746113417222 7.742137426901722 1.5988004935553548 0 0 0
28 1 9.669529887869185 6.161734970102977 0.019239632419923332 0 0 0
229 1 11.231361016343524 7.741941577707239 1.6017874980583866 0 0 1
21 1 12.856427495330905 6.184484685776162 0.042948478758682136 -1 0 0
29 1 9.669721857682394 9.323856950869533 0.01935554709678942 0 0 1
139 1 12.853670378561654 9.29816691069212 0.04441738050704668 0 0 0
147 1 9.655764926118742 12.487937082148555 0.021342511745183847 0 0 0
136 1 8.083349756806541 10.905017875758878 1.603981237687751 0 0 0
138 1 11.252301972408768 10.890785161782597 1.608626325048597 0 0 0
33 1 12.832091932529027 15.659727049629554 6.3435037893600965 0 -1 0
164 1 14.401915512217851 10.910912804373137 1.6127822175683957 0 0 0
112 1 8.075857009729047 14.072145039737913 1.6041248523477045 0 0 0
109 1 9.657058222731997 15.655700918746602 0.026613987431155083 0 -1 1
224 1 11.24712856689804 14.070465402129761 1.6082033719605793 0 -1 0
250 1 12.857775644947745 15.634065700466662 0.06390786457536751 0 0 1
101 1 14.449150034095355 14.047330744216215 1.6307631774804834 -1 -1 1
54 1 8.071595835931483 1.4154608952501873 4.761070733198149 0 0 0
44 1 11.244962996695278 1.4198164166703837 4.764614322950764 0 0 0
56 1 14.421637459934157 1.414390606212107 4.766199074920082 -1 0 0
42 1 9.661706105564559 3.0012005999964795 3.181182887054067 0 0 0
64 1 8.063116193200475 4.592776075376294 4.745055371084371 0 0 0
36 1 12.835584464308607 3.0034725357626924 3.186114323275491 -1 0 0
59 1 11.255872458482232 4.5910585384049645 4.752736951456775 0 0 0
65 1 14.420980523177034 4.58855625666967 4.754915429696341 0 0 0
88 1 9.669439917151632 6.163142700826517 3.179308859305562 0 0 0
161 1 8.085051381934134 7.746826017922204 4.76211204132843 0 0 0
35 1 12.856797162141081 6.182650797226711 3.1624086328242833 0 0 0
181 1 11.26138598656745 7.744816392939918 4.754407411885973 0 0 0
155 1 14.417611370176475 7.736897289402003 4.790199619405871 0 0 0
137 1 9.671491304737081 9.325041109362141 3.1855712278364394 0 0 0
154 1 12.850875517587882 9.299570512419415 3.169422183363013 0 0 0
66 1 9.666478686253162 12.488822898189436 3.1850962412608337 0 0 0
172 1 8.082116403321223 10.911021070618952 4.76738322132456 0 0 0
162 1 11.258729434139351 10.900197197679137 4.760601249539565 0 0 0
62 1 12.837444123869103 12.480412302998955 3.189841082255363 0 0 0
165 1 14.42403234081932 10.891606487531247 4.761553128150876 0 0 0
171 1 8.076969675344815 14.07349887774574 4.766085866021911 0 0 0
32 1 9.662668225631027 15.65667773003891 3.186150308147855 0 -1 0
103 1 12.839629989250026 15.652159424511197 3.1917136371174513 -1 -2 0
30 1 11.250798476409205 14.071793609622619 4.766891101142343 0 0 0
197 1 14.42780612506718 14.064621660611195 4.768000876011753 0 -1 0
90 1 9.639690013901562 3.0235446503221572 6.3285843664372186 0 0 0
60 1 12.836225319596114 3.0005393858030747 6.342489967686009 0 0 0
175 1 9.668358174212889 6.174504149708648 6.334557346513917 0 0 0
92 1 12.838417031089683 6.1647388725954935 6.339188248168428 0 0 0
118 1 9.665739720978506 9.329766608891562 6.345329755080725 0 0 0
194 1 12.835689135551416 9.325457294473942 6.345331836355726 0 0 0
184 1 9.66591651575661 12.489377083763369 6.346956058913251 0 0 0
163 1 12.83820790761725 12.486719384913984 6.346337059841634 0 0 0
69 1 9.659604256735483 15.657441825255285 6.344303894204493 0 -1 0
91 1 11.221930997376413 1.441238946278767 7.907130391219192 0 0 0
148 1 12.776872656025306 12.478784383453112 0.024786477266797925 0 0 0
198 1 8.070602776267595 14.065050377538112 7.92676232097009 0 0 0
241 1 14.929506570608273 13.552167256625841 14.784101402581879 0 0 0
130 1 13.544438838996436 14.957810855538284 13.380927764903563 0 0 0
53 1 9.335859829420837 3.3239390944736247 9.185370520443547 0 -1 0
199 1 11.249212757406148 14.06923400861812 7.927038254329568 0 0 0
94 1 12.891078365629703 2.9982939016471697 9.513598716946838 0 0 0
240 1 14.451989743452456 10.86546769906157 14.306474653489609 0 0 0
206 1 14.430395197744676 4.583790716569381 7.925719285309682 0 0 0
104 1 9.637966122942741 6.178538592639308 9.4897960790306 0 0 0
179 1 8.061925638444626 7.764004111092344 7.917899032084756 0 0 0
183 1 12.834742634220664 6.164720165819361 9.513428981439585 0 0 1
189 1 11.2484936101842 7.748085066518615 7.926901550746047 0 0 0
43 1 14.420867435359057 7.742691654843352 7.935381125635806 0 0 0
119 1 9.660345943319527 9.327093944743437 9.51259563827429 0 0 0
73 1 12.835485791706793 9.323428157169365 9.515894429967442 0 0 0
221 1 9.662330004744346 12.4798359134625 9.51477628730489 0 0 0
193 1 8.075221058933268 10.911120006188291 7.931321455525939 0 0 0
213 1 12.836936736520704 12.481934610180414 9.509680073407923 0 0 0
214 1 11.250310155878234 10.906115393055089 7.9300601212197765 0 0 0
195 1 14.422849768503843 10.903889273627383 7.930237751177399 0 0 0
39 1 9.658205701013163 15.603393938422585 9.511225566972637 0 0 0
238 1 11.254113342582807 10.893056952552227 14.272096979680866 0 0 0
84 1 12.81363379579598 15.67780894416876 9.474403570414893 0 -1 0
115 1 11.197175830104957 14.09348390048437 14.242321754888938 0 0 0
246 1 8.066199509399524 14.074302299443241 14.262159675026766 0 0 0
7 1 8.049697087876307 1.4421067369925862 11.069519150495779 0 0 -1
120 1 10.751010435778294 1.9119781031189174 10.602125010948182 0 0 0
188 1 14.480887791580576 1.3920096156273905 11.120489674907358 0 0 0
74 1 8.059404867232852 4.594739219725434 11.120797453169944 0 0 0
20 1 9.66107618206664 3.0024948527079864 12.73797001034885 0 0 0
93 1 11.222556354255468 4.6039130484831805 11.07311311068109 0 0 0
228 1 12.814728276368845 3.0412269274681174 12.662326219317691 0 0 0
96 1 14.426071787927087 4.584151388465421 11.101153064077263 -1 0 0
124 1 9.661572441246168 6.166723736608233 12.681986618994692 0 0 0
151 1 8.072110223844291 7.748105848441288 11.096390487945936 1 0 0
100 1 12.831994018885869 6.166314456333205 12.684149530166412 0 0 0
204 1 11.245901064836959 7.744555014444065 11.096073279929778 0 0 0
89 1 14.422053383708507 7.741935043050504 11.099243710202567 0 0 0
237 1 9.66465331560913 9.322175180255027 12.682692652747072 0 0 0
230 1 12.840857911175226 9.318491399582353 12.692800833389924 0 0 0
211 1 8.075254042985145 10.906612796210606 11.099174319779548 0 0 0
247 1 9.659129076655791 12.48199591241228 12.6835850427211 0 0 0
205 1 11.252300562403269 10.896243591456518 11.102243792651437 0 0 0
6 1 12.861454410264448 12.443315729710267 12.70820625747982 0 0 0
215 1 14.424387843664231 10.899732514780467 11.099282695011006 0 0 0
50 1 9.619670583377149 15.67947371729543 12.658264137474658 0 0 0
82 1 8.070749218644465 14.069552480476013 11.097879680682883 0 -1 0
249 1 11.268703431678496 14.013715836691548 11.117562787301607 0 0 0
58 1 12.150757575068917 0.5132071475037316 12.001737929260829 0 1 0
108 1 14.404536683414587 14.09008998545438 11.040932988251093 0 0 0
219 1 8.070464899684563 1.4142148652768143 14.26711469707618 0 0 0
85 1 11.26751279353996 1.3985465144258382 14.324928722767526 0 0 0
23 1 14.40278299574311 1.4746823033860184 14.246406868228393 0 0 0
153 1 8.071939027565922 4.584188477392675 14.27200406120612 0 0 0
117 1 11.25700534407332 4.59276329027259 14.275998958565694 0 0 0
95 1 14.42129780433374 4.601831371893585 14.275201136313948 0 0 0
202 1 8.079284662919958 7.743339955442831 14.263608153041604 0 0 0
173 1 11.260373837183112 7.742447501432999 14.274353435574211 0 0 0
226 1 14.426625999937652 7.738878006789212 14.25338004122481 -1 0 0
236 1 8.077505613724279 10.905384883895904 14.26436294737879 0 0 0
16 1 14.42128996690117 14.072886156397336 7.921712497122168 0 0 0
239 1 14.425769151391512 1.4128775826522504 7.92731701317895 0 0 0
99 1 11.275579434722054 4.594264149763232 7.915267365923234 0 0 0
68 1 8.057819271577007 1.3909218857219725 7.914349666811487 0 0 0

Velocities

11 0 0 0
4 0 0 0
180 0 0 0
2 0 0 0
14 0 0 0
13 0 0 0
15 0 0 0
131 0 0 0
12 0 0 0
132 0 0 0
127 0 0 0
135 0 0 0
141 0 0 0
133 0 0 0
158 0 0 0
207 0 0 0
150 0 0 0
134 0 0 0
142 0 0 0
145 0 0 0
46 0 0 0
1 0 0 0
83 0 0 0
3 0 0 0
144 0 0 0
52 0 0 0
185 0 0 0
37 0 0 0
38 0 0 0
116 0 0 0
152 0 0 0
40 0 0 0
126 0 0 0
157 0 0 0
47 0 0 0
212 0 0 0
48 0 0 0
156 0 0 0
22 0 0 0
160 0 0 0
166 0 0 0
176 0 0 0
170 0 0 0
232 0 0 0
45 0 0 0
26 0 0 0
167 0 0 0
169 0 0 0
192 0 0 0
159 0 0 0
71 0 0 0
57 0 0 0
41 0 0 0
75 0 0 0
72 0 0 0
63 0 0 0
61 0 0 0
177 0 0 0
19 0 0 0
174 0 0 0
182 0 0 0
9 0 0 0
78 0 0 0
196 0 0 0
34 0 0 0
149 0 0 0
51 0 0 0
227 0 0 0
86 0 0 0
27 0 0 0
67 0 0 0
242 0 0 0
55 0 0 0
186 0 0 0
222 0 0 0
178 0 0 0
210 0 0 0
98 0 0 0
203 0 0 0
248 0 0 0
209 0 0 0
216 0 0 0
191 0 0 0
218 0 0 0
121 0 0 0
220 0 0 0
24 0 0 0
97 0 0 0
76 0 0 0
80 0 0 0
107 0 0 0
77 0 0 0
79 0 0 0
187 0 0 0
87 0 0 0
102 0 0 0
140 0 0 0
5 0 0 0
125 0 0 0
201 0 0 0
123 0 0 0
113 0 0 0
129 0 0 0
231 0 0 0
233 0 0 0
25 0 0 0
190 0 0 0
208 0 0 0
200 0 0 0
143 0 0 0
245 0 0 0
217 0 0 0
223 0 0 0
105 0 0 0
81 0 0 0
244 0 0 0
111 0 0 0
31 0 0 0
110 0 0 0
114 0 0 0
122 0 0 0
235 0 0 0
49 0 0 0
234 0 0 0
168 0 0 0
70 0 0 0
146 0 0 0
8 0 0 0
106 0 0 0
17 0 0 0
18 0 0 0
243 0 0 0
10 0 0 0
225 0 0 0
128 0 0 0
28 0 0 0
229 0 0 0
21 0 0 0
29 0 0 0
139 0 0 0
147 0 0 0
136 0 0 0
138 0 0 0
33 0 0 0
164 0 0 0
112 0 0 0
109 0 0 0
224 0 0 0
250 0 0 0
101 0 0 0
54 0 0 0
44 0 0 0
56 0 0 0
42 0 0 0
64 0 0 0
36 0 0 0
59 0 0 0
65 0 0 0
88 0 0 0
161 0 0 0
35 0 0 0
181 0 0 0
155 0 0 0
137 0 0 0
154 0 0 0
66 0 0 0
172 0 0 0
162 0 0 0
62 0 0 0
165 0 0 0
171 0 0 0
32 0 0 0
103 0 0 0
30 0 0 0
197 0 0 0
90 0 0 0
60 0 0 0
175 0 0 0
92 0 0 0
118 0 0 0
194 0 0 0
184 0 0 0
163 0 0 0
69 0 0 0
91 0 0 0
148 0 0 0
198 0 0 0
241 0 0 0
130 0 0 0
53 0 0 0
199 0 0 0
94 0 0 0
240 0 0 0
206 0 0 0
104 0 0 0
179 0 0 0
183 0 0 0
189 0 0 0
43 0 0 0
119 0 0 0
73 0 0 0
221 0 0 0
193 0 0 0
213 0 0 0
214 0 0 0
195 0 0 0
39 0 0 0
238 0 0 0
84 0 0 0
115 0 0 0
246 0 0 0
7 0 0 0
120 0 0 0
188 0 0 0
74 0 0 0
20 0 0 0
93 0 0 0
228 0 0 0
96 0 0 0
124 0 0 0
151 0 0 0
100 0 0 0
204 0 0 0
89 0 0 0
237 0 0 0
230 0 0 0
211 0 0 0
247 0 0 0
205 0 0 0
6 0 0 0
215 0 0 0
50 0 0 0
82 0 0 0
249 0 0 0
58 0 0 0
108 0 0 0
219 0 0 0
85 0 0 0
23 0 0 0
153 0 0 0
117 0 0 0
95 0 0 0
202 0 0 0
173 0 0 0
226 0 0 0
236 0 0 0
16 0 0 0
239 0 0 0
99 0 0 0
68 0 0 0
