LAMMPS data file via write_data, version 22 Jul 2025, timestep = 43194, units = metal

250 atoms
1 atom types

-0.02150614826831288 15.847484148268357 xlo xhi
0 15.825978000000001 ylo yhi
0 15.825978000000001 zlo zhi

Masses

1 183.841

Atoms # atomic

11 1 1.6681121301987845 1.4144001678198534 1.5930069111796565 0 0 0
4 1 4.832175812668608 1.3754586584984096 1.5982664601321428 0 0 0
180 1 1.6800372647109594 4.576440019038841 1.5822739814756106 0 0 0
34 1 6.447463376973041 15.64611796311664 6.321317080411372 0 -1 0
14 1 4.860560826455634 4.5740931808100465 1.58330055091368 0 0 0
15 1 6.423441005484903 2.965772423508062 0.03150967016019004 0 0 0
131 1 1.6858891639289266 7.731654622954169 1.5759796423908834 0 0 0
196 1 3.271507768862172 15.645483454584717 6.326175715789738 0 0 0
132 1 4.866455812959625 7.735618194450115 1.5774143006307932 0 0 0
13 1 3.2631997714024648 3.0319856050530576 0.004742570082764757 0 0 0
135 1 6.455442679614715 6.167787135215239 0.008770611235341402 0 0 0
144 1 6.492409132678169 15.636990442431927 0.003481900526726681 0 0 0
158 1 6.4574685981886715 9.319336287353503 0.0061487337148211285 0 0 0
207 1 1.6764039803454418 10.880098094974008 1.585283887099802 0 0 0
134 1 4.864853137340209 10.89426046880823 1.5799371177700763 0 0 0
142 1 3.253347405602444 12.462043131030772 0.01694581013475584 0 0 0
145 1 6.453931034505573 12.468047759131421 0.00644818168418077 0 0 0
46 1 1.5450265214254133 13.926147478362319 1.7143545208860882 -1 0 0
1 1 0.07407338470576524 15.624536392460014 0.01676371286236737 0 -1 0
83 1 4.878732521229991 14.044562518425392 1.5955211365893687 0 0 0
3 1 3.007467979826405 15.373155593543746 0.2686009742661404 0 -1 0
80 1 4.862978718977423 14.062204887211957 7.903952659446838 0 -1 0
52 1 1.682028803093121 1.403319802677367 4.746693543205988 0 0 0
185 1 4.856514331285801 1.4005430848654588 4.742461848193501 0 1 0
37 1 1.6876568032831059 4.570083022122009 4.740809841104953 0 0 0
38 1 0.09394645360531345 2.9899033583065187 3.162407345617493 0 0 0
116 1 3.269621900465393 2.985330840814512 3.1634136970716535 0 0 0
152 1 4.862832671210898 4.57204128131292 4.738577488677861 0 0 0
40 1 6.4435736939250985 2.9855468114281094 3.162707739775921 0 0 0
126 1 0.09865028645745665 6.152484230616857 3.156580058668922 0 0 0
157 1 1.6921859574748819 7.732797346249818 4.739050346248187 1 0 0
47 1 3.2765661397551518 6.152895709870312 3.159315176761232 0 0 0
212 1 4.867178949127552 7.734970829913365 4.739134737318167 0 0 0
48 1 6.458141565943447 6.164607656438609 3.1587920445099296 0 0 0
156 1 0.10157770408497291 9.306233488260975 3.157788915320107 0 0 0
22 1 3.2744045726558504 9.312788492709531 3.1597405812518295 0 0 0
160 1 6.428159441053187 9.317529566067266 3.1572639997953384 0 0 0
166 1 0.052941621071423604 12.437550586066939 3.201761352209415 0 0 0
176 1 1.6973411001219079 10.90012065703051 4.741630523510955 0 0 0
170 1 4.8673623686147005 10.899924653310366 4.741621216223167 0 0 0
232 1 3.277636847413894 12.472200733971432 3.1677721986633105 0 0 0
45 1 6.460302485133616 12.467044910962038 3.163070472101034 0 0 0
26 1 0.08615373292002876 15.649526340166032 3.1695549704826584 0 -1 0
167 1 1.6759750234845143 14.054951533425198 4.761127503347628 0 0 0
169 1 3.252019744501637 15.624900995942356 3.1780427999269096 0 0 0
192 1 4.861221479808813 14.059444968634487 4.745821588129323 0 0 0
159 1 6.446526319754698 15.642342361360496 3.163987433496477 0 -1 0
51 1 1.6847187702976472 1.4056986781593472 7.905850463719927 0 0 0
227 1 4.862051041272264 1.4064130755668631 7.895267036101828 0 0 0
70 1 1.685635431222809 4.571520959368376 7.903972518165063 0 -1 0
71 1 0.09947863315271688 2.9893162149077925 6.3233009702962155 0 0 0
57 1 3.2732294442196763 2.9879619062602556 6.321591983752918 0 0 0
78 1 0.09621060761560417 15.64988262263022 6.32839269166974 1 -1 0
41 1 6.4516303420028445 2.9937182678320746 6.314470061786624 0 0 0
75 1 0.10500744050517286 6.1550082656208165 6.317733343741386 1 0 0
9 1 6.455656391198146 12.476056048931929 6.315563837113086 0 -1 0
62 1 3.276072308403814 6.1531240062928685 6.320937872071116 0 0 0
210 1 4.853117253863446 7.740883283633507 7.899451733968637 0 0 0
63 1 6.454390671287181 6.163865509088567 6.307733649857564 0 0 0
61 1 0.1190020140764359 9.32656392401087 6.312897093202031 0 0 0
177 1 3.2793639116557443 9.319000330573596 6.321031816398426 0 0 0
19 1 6.451646968055554 9.32581564748537 6.304497401941126 0 0 0
174 1 0.0976702117952668 12.482528221341658 6.3345703049512805 1 0 0
182 1 3.277057977117082 12.480875163180382 6.328010917274634 0 0 0
121 1 4.864095886074771 10.900780605833173 7.9042937404135705 0 0 0
186 1 1.6907516247960879 7.7380429535011785 7.90282133411269 0 0 0
97 1 1.6852427010003384 14.064420593805886 7.9090320763921005 0 0 0
72 1 4.85831204573193 4.5731512009085025 7.898179957319316 0 0 0
191 1 1.691454582079857 10.90170932632505 7.9075506326487845 0 0 0
86 1 0.09747540313044023 2.9894614226876386 9.487584192402988 0 0 0
67 1 3.267879193371637 2.9881972815045064 9.482983061046873 0 0 0
168 1 6.471811177389078 3.0126050996239377 9.43923833328783 0 0 0
222 1 0.10112168749501514 6.158344472049475 9.482950947481111 0 0 0
178 1 3.2641311121948737 6.152579735660723 9.488910812344066 0 0 0
98 1 6.390883213509882 6.148855813762543 9.492072946675659 0 0 0
203 1 0.10517002635915468 9.322143883842195 9.486486144238619 1 0 0
248 1 3.2746982663746373 9.3196018849758 9.488554617006638 0 0 0
209 1 6.447604755900531 9.324458401559147 9.484040744760785 0 0 0
216 1 0.09878337154093444 12.483069387731076 9.489233499423124 0 0 0
27 1 4.834037220466211 14.03986710409931 14.269128766582952 0 0 0
218 1 3.2747218495058084 12.481320363838588 9.489522108340037 0 0 0
242 1 1.6679720209017856 14.047578322077422 14.22815188707792 0 0 0
220 1 6.448770334766966 12.4814963844936 9.486652568895575 0 0 0
24 1 0.09676300910843327 15.648627256394962 9.489353498921396 0 -1 -1
76 1 3.2703388503119686 15.644374891245665 9.478406740787657 0 -1 0
50 1 6.447606063037305 15.641843658848972 9.48251064435791 0 0 0
77 1 1.6797390094189062 1.4028650323698386 11.070439998273557 0 0 0
79 1 4.868210269483842 1.4129076264381988 11.012317549060343 0 0 0
187 1 1.67695692228486 4.56769670403704 11.07425315610567 0 0 0
87 1 0.09341465300702308 2.982884407717807 12.659789443287673 0 0 0
102 1 3.236476650643145 2.9621295613917376 12.680491394168431 0 0 0
140 1 4.809657343697459 4.546386275629643 11.096238101414771 0 0 0
55 1 7.22411831857165 3.7634650717012414 11.882981422488045 0 0 0
125 1 0.09759879887197563 6.153689311962238 12.653547563102322 1 0 0
201 1 1.6854237785528319 7.736880212981029 11.07075382572823 0 0 0
123 1 4.856476538551315 7.741556383662837 11.071075530997447 0 0 0
113 1 3.2679382015320897 6.158670928688709 12.654952892290297 0 0 0
129 1 6.471435508469619 6.204674173026334 12.633634245975902 0 0 0
231 1 0.09928518246143414 9.317188450293044 12.653757294127235 0 0 0
233 1 3.2730108687323005 9.31916506580012 12.655284750912223 0 0 0
25 1 6.45177918072456 9.326292604433009 12.653616858978165 0 0 -1
190 1 1.6870747912247188 10.899564193361265 11.07225995145216 1 0 0
208 1 0.09342177414728793 12.477866112660514 12.652839807774487 0 0 0
200 1 4.861170665494535 10.900865525500324 11.072450473731797 0 0 0
143 1 3.26937732576425 12.476984030943061 12.6577860889605 0 0 -1
245 1 6.442932341777086 12.477556841271953 12.661303901618219 0 0 0
217 1 1.6792255922988006 14.058560352895547 11.065749604471664 0 0 0
223 1 0.09197778985582711 15.642928161701933 12.657325652542083 1 -1 0
105 1 4.858829505262888 14.058835251650033 11.070498571334717 0 -1 0
81 1 3.261686410124362 15.635700172173049 12.610856616372981 0 0 0
244 1 6.422942848170326 15.610609712150724 12.679564096086057 0 0 0
111 1 1.6619837235996893 1.374243086048812 14.267490496421381 0 0 0
31 1 4.426610829884667 0.9711627995409977 14.66953234115651 0 1 0
110 1 1.6804095431327497 4.571717276379647 14.23916424663059 1 0 0
12 1 0.09642696589428632 6.152028027339639 15.818526929405513 1 0 -2
114 1 4.871525323635536 4.633743990318348 14.231665261247727 0 0 0
5 1 5.834600380708212 2.377123770154035 13.267541619941342 0 0 -1
122 1 1.6848664915988438 7.735616032147191 14.236825169959321 0 0 0
235 1 4.8636127601994845 7.747508818080236 14.23870595673773 0 0 0
141 1 0.0952146475224882 9.312398609155489 15.818164208583367 0 0 -1
150 1 0.08517122129275727 12.471045269262168 15.817594490455907 1 0 -1
49 1 1.6819976135633519 10.893879255281998 14.239105229265029 0 0 -1
234 1 4.858060226799222 10.896881589512654 14.244263981151331 0 0 0
133 1 3.273177081841657 9.314697068115528 15.823104164162807 0 0 -1
2 1 0.0925221776141005 2.985403876487572 15.824079592117739 1 0 0
127 1 3.271784150224744 6.16356605678846 15.823496719645672 0 0 -1
146 1 8.034887967884515 1.4036308241573605 1.5814540288668733 0 1 0
8 1 11.206458469255287 1.4057090307570297 1.5772819734861745 0 0 0
106 1 14.372552885121715 1.403356082779743 1.58062797258279 0 1 0
17 1 8.031062770221718 4.574903237710611 1.5848885057510707 0 0 0
243 1 11.208307636097647 4.577741716242066 1.5767208335450924 0 0 0
225 1 14.37798203576554 4.571768467547896 1.5755488205607309 0 1 1
128 1 8.053781313840581 7.758974876864576 1.5992995676592383 0 0 0
28 1 9.619936635999002 6.165127574886594 0.016510517382859885 0 0 0
229 1 11.190566518876414 7.759325002153937 1.5937214351243367 0 0 1
21 1 12.787444504580197 6.160991757862725 0.0008883720978092113 -1 0 0
130 1 14.377910331063937 7.732759587757957 1.569501418534386 0 0 0
179 1 7.989652688923828 7.751471465164741 7.883159390166071 0 0 0
136 1 8.05344273126411 10.877235464065988 1.5975600902532585 0 0 0
147 1 9.6187484092355 12.469306605748953 0.004512542371016344 0 0 0
137 1 11.183805484666935 10.878414533673196 1.5937284844144293 0 0 0
33 1 12.793268199666231 15.650283322290496 6.321726316672653 0 -1 0
164 1 14.374041463459296 10.899945290730713 1.5644475774436275 0 0 0
112 1 8.039602854820323 14.053116886081504 1.5818029837370324 0 0 0
224 1 11.20218350902246 14.057668756815678 1.5770477655795176 0 -1 0
101 1 14.353946861061955 14.052090240990369 1.588060898740999 -1 -1 1
54 1 8.03308973850292 1.4063062408225424 4.740379798165962 0 0 0
44 1 11.20591845431568 1.4076459906248195 4.739546111790096 0 0 0
56 1 14.378015336746838 1.4072690662076983 4.741980004078865 -1 0 0
42 1 9.620370900898548 2.9888712517245537 3.159026470032449 0 0 0
64 1 8.039455492269807 4.583658298530886 4.736861791978218 0 0 0
36 1 12.791392902202714 2.991203272170945 3.1571573955999086 -1 0 0
59 1 11.211306344219532 4.581357579431119 4.733350100712865 0 0 0
65 1 14.383913293580656 4.570830606255055 4.733797131554819 0 0 0
88 1 9.623362289802401 6.1413956584335825 3.154274021016075 0 0 0
161 1 8.053123151111514 7.761867876480754 4.7118442279142885 0 0 0
35 1 12.78869645103167 6.16490817722414 3.149854022164289 0 0 0
181 1 11.203681873530472 7.781854277636385 4.684796645616369 0 0 0
155 1 14.385328125700669 7.734196691837248 4.730719030246056 0 0 0
154 1 12.827325435550122 9.327922811929641 3.1377806862563262 0 0 0
66 1 9.61706101262456 12.50034137329871 3.1568424413759018 0 0 0
172 1 8.050770802609723 10.883470991996298 4.716072924950665 0 0 0
162 1 11.180619087163116 10.887636457699031 4.706829755576947 0 0 0
138 1 12.7698409712473 12.47068085972506 3.1590646867671177 0 0 0
165 1 14.406903406033964 10.931954010368669 4.709900388530441 0 0 0
32 1 9.618563581557066 15.650185425897885 3.1595269619912214 0 -1 0
171 1 8.032830697710187 14.060542511235811 4.741371285363361 0 0 0
103 1 12.785708148317807 15.647977060725488 3.160550525035091 -1 -2 0
30 1 11.203514625911566 14.064611673882643 4.739090481086209 0 0 0
197 1 14.376264834659082 14.0731935145033 4.741251944418897 0 -1 0
68 1 8.03480040543993 1.4014648664518197 7.898764944006512 0 0 0
91 1 11.211153281744485 1.3970771265700024 7.899974736063231 0 0 0
18 1 9.626114256503229 2.9905624171361884 0.0011545869695394882 0 0 0
149 1 8.061888942645364 4.601596729983642 7.869228314311271 0 0 -1
90 1 9.623617227532392 2.9926475160166977 6.315685835057824 0 0 0
60 1 12.799069082493967 2.9863275489945353 6.315761609617669 0 0 0
99 1 11.219405289072714 4.541875496850049 7.889989382143192 0 0 0
206 1 14.384649522672108 4.5764081277255935 7.898124682568906 0 0 0
175 1 9.650071139049933 6.197992481097812 6.287778817698294 0 0 0
92 1 12.806277545314186 6.153289817012157 6.291547361661839 0 0 0
43 1 14.400884658704046 7.757731955407044 7.881948615040751 0 0 0
118 1 9.612610674406328 9.331677914206873 6.323661613182898 0 0 0
189 1 11.460326831384481 7.975251130414582 7.660358230420784 0 0 0
194 1 12.894088203634404 9.439691414577487 6.18655376826551 0 0 0
184 1 9.620881915855897 12.477661214226982 6.307954642307873 0 0 0
193 1 8.03619972091161 10.90617641204581 7.894762096667372 0 0 0
163 1 12.793651695926457 12.49323809705898 6.306238163530295 0 0 0
214 1 11.226009841730141 10.919563887195071 7.878766532668714 0 0 0
195 1 14.386113351701708 10.905914941641177 7.903582655548142 0 0 0
198 1 8.03556830483903 14.062387538869576 7.901825428368964 0 0 0
69 1 9.619775275366116 15.647360031999353 6.320167163999265 0 -1 0
199 1 11.207653186336655 14.06647424349809 7.900628099388528 0 0 0
16 1 14.37949335799551 14.06813887109038 7.905821155706491 0 0 0
139 1 12.784060048428593 9.318702135128104 0.0014399552332132522 0 0 0
239 1 14.381312995381641 1.40712286122023 7.905870535167538 0 0 0
148 1 12.77833634081122 12.471666106428064 0.000196849599117532 0 0 0
53 1 9.617860156871725 2.9297194027059676 9.490659893098284 0 -1 0
94 1 12.799137005186672 2.9895206075369587 9.48435294344416 0 0 0
104 1 10.01330791733796 6.564092569991513 9.081798828684668 0 0 0
241 1 14.370726149085828 14.058475262710997 14.240598081289942 0 0 0
100 1 12.81445110641259 6.184336068522085 9.456666145964382 0 0 0
119 1 9.648333867553326 9.339397679326249 9.460096035667538 0 0 0
73 1 12.810325190650843 9.336463112846344 9.496063327970393 0 0 0
221 1 9.62475978221084 12.48363488018212 9.481381409586005 0 0 0
213 1 12.796625590419255 12.488114973925768 9.484907333799534 0 0 0
39 1 9.619997832452668 15.63785550191746 9.487907374541631 0 0 0
84 1 12.794528641810468 15.648456592487111 9.48792611696023 0 -1 0
107 1 8.010755722406934 1.3537103193568065 11.094745735279544 0 0 0
120 1 11.213047735982325 1.4006694740711343 11.070543117441062 0 0 0
188 1 14.380774448300338 1.405376155237544 11.071707710823556 0 0 0
20 1 9.67080682613727 3.012821122577392 12.630826155243657 0 0 0
93 1 11.2411922109139 4.598348514841699 11.044758470265487 0 0 0
228 1 12.801816728579455 2.992167652410352 12.650904179954992 0 0 0
96 1 14.384221621095378 4.576891951593584 11.065342111875154 -1 0 0
74 1 8.616753489751868 5.149910217077923 10.493475458434057 0 0 0
124 1 9.616256241925772 6.151049052402812 12.71681120806587 0 0 0
151 1 8.058884244849283 7.769313582032287 11.045678789239567 1 0 0
204 1 11.219588945891406 7.747805729945484 11.108938870900335 0 0 0
183 1 12.799043702832229 6.156621046804883 12.655869762900801 0 0 1
89 1 14.385949333289327 7.740521535465461 11.068234140474388 0 0 0
237 1 9.622721257355991 9.323941051575067 12.654258479159163 0 0 0
230 1 12.79838904908332 9.324157592102164 12.661268742197528 0 0 0
211 1 8.038816352052608 10.904245583107862 11.066214690832837 0 0 0
247 1 9.620361808828283 12.48025641178859 12.655689222689372 0 0 0
205 1 11.21115282339787 10.906083590916019 11.068600456076613 0 0 0
6 1 12.79159325258879 12.482581789136711 12.655001928177311 0 0 0
215 1 14.384358109485852 10.904563858640971 11.072875854835956 0 0 0
82 1 8.031530648593689 14.055721294097257 11.073902367306696 0 -1 0
7 1 9.625912964915823 15.641468957433208 12.654517928061866 0 -1 -1
249 1 11.207714409833596 14.063526168213661 11.070420312304604 0 0 0
58 1 12.794002647949167 15.646413413868679 12.654954301941718 0 0 0
108 1 14.378784517739852 14.065694152437839 11.071920559074055 0 0 0
219 1 8.094610261341675 1.4151856244642629 14.22776358087952 0 0 0
85 1 11.217168464853085 1.4062307378412977 14.236379018722323 0 0 0
23 1 14.376968558295287 1.4000712384526668 14.242019480439383 0 0 0
115 1 11.204896454779908 14.061013097655485 14.238806573932045 0 0 0
153 1 8.011971827006706 4.550621934884254 14.292858365395722 0 0 0
117 1 11.211937145216107 4.573757621503444 14.244273855963874 0 0 0
10 1 12.7940512029089 2.989144312598846 15.821026590804987 0 0 -1
95 1 14.379285341324282 4.571896044693589 14.238528176987833 0 0 0
202 1 8.034483990932083 7.742352507332859 14.249107311495973 0 0 0
173 1 11.211033073440401 7.740285181052651 14.253146191870472 0 0 0
226 1 14.379777722019062 7.735896373504218 14.237329256826808 -1 0 0
29 1 9.619721087377933 9.319554186918404 15.80488373939764 0 0 0
236 1 8.033296737495192 10.900464952334591 14.243842109501157 0 0 0
238 1 11.205426765840185 10.900734324007516 14.24230956752624 0 0 0
240 1 14.376415098284761 10.89732942082055 14.237066645029072 0 0 0
246 1 8.036551075889163 14.056939584010477 14.241190957254112 0 0 0
250 1 12.788088792389019 15.643682085584274 15.82267222443538 0 0 0
109 1 9.629970803993947 15.642798561196308 15.823772903850859 0 -1 0

Velocities

11 0 0 0
4 0 0 0
180 0 0 0
34 0 0 0
14 0 0 0
15 0 0 0
131 0 0 0
196 0 0 0
132 0 0 0
13 0 0 0
135 0 0 0
144 0 0 0
158 0 0 0
207 0 0 0
134 0 0 0
142 0 0 0
145 0 0 0
46 0 0 0
1 0 0 0
83 0 0 0
3 0 0 0
80 0 0 0
52 0 0 0
185 0 0 0
37 0 0 0
38 0 0 0
116 0 0 0
152 0 0 0
40 0 0 0
126 0 0 0
157 0 0 0
47 0 0 0
212 0 0 0
48 0 0 0
156 0 0 0
22 0 0 0
160 0 0 0
166 0 0 0
176 0 0 0
170 0 0 0
232 0 0 0
45 0 0 0
26 0 0 0
167 0 0 0
169 0 0 0
192 0 0 0
159 0 0 0
51 0 0 0
227 0 0 0
70 0 0 0
71 0 0 0
57 0 0 0
78 0 0 0
41 0 0 0
75 0 0 0
9 0 0 0
62 0 0 0
210 0 0 0
63 0 0 0
61 0 0 0
177 0 0 0
19 0 0 0
174 0 0 0
182 0 0 0
121 0 0 0
186 0 0 0
97 0 0 0
72 0 0 0
191 0 0 0
86 0 0 0
67 0 0 0
168 0 0 0
222 0 0 0
178 0 0 0
98 0 0 0
203 0 0 0
248 0 0 0
209 0 0 0
216 0 0 0
27 0 0 0
218 0 0 0
242 0 0 0
220 0 0 0
24 0 0 0
76 0 0 0
50 0 0 0
77 0 0 0
79 0 0 0
187 0 0 0
87 0 0 0
102 0 0 0
140 0 0 0
55 0 0 0
125 0 0 0
201 0 0 0
123 0 0 0
113 0 0 0
129 0 0 0
231 0 0 0
233 0 0 0
25 0 0 0
190 0 0 0
208 0 0 0
200 0 0 0
143 0 0 0
245 0 0 0
217 0 0 0
223 0 0 0
105 0 0 0
81 0 0 0
244 0 0 0
111 0 0 0
31 0 0 0
110 0 0 0
12 0 0 0
114 0 0 0
5 0 0 0
122 0 0 0
235 0 0 0
141 0 0 0
150 0 0 0
49 0 0 0
234 0 0 0
133 0 0 0
2 0 0 0
127 0 0 0
146 0 0 0
8 0 0 0
106 0 0 0
17 0 0 0
243 0 0 0
225 0 0 0
128 0 0 0
28 0 0 0
229 0 0 0
21 0 0 0
130 0 0 0
179 0 0 0
136 0 0 0
147 0 0 0
137 0 0 0
33 0 0 0
164 0 0 0
112 0 0 0
224 0 0 0
101 0 0 0
54 0 0 0
44 0 0 0
56 0 0 0
42 0 0 0
64 0 0 0
36 0 0 0
59 0 0 0
65 0 0 0
88 0 0 0
161 0 0 0
35 0 0 0
181 0 0 0
155 0 0 0
154 0 0 0
66 0 0 0
172 0 0 0
162 0 0 0
138 0 0 0
165 0 0 0
32 0 0 0
171 0 0 0
103 0 0 0
30 0 0 0
197 0 0 0
68 0 0 0
91 0 0 0
18 0 0 0
149 0 0 0
90 0 0 0
60 0 0 0
99 0 0 0
206 0 0 0
175 0 0 0
92 0 0 0
43 0 0 0
118 0 0 0
189 0 0 0
194 0 0 0
184 0 0 0
193 0 0 0
163 0 0 0
214 0 0 0
195 0 0 0
198 0 0 0
69 0 0 0
199 0 0 0
16 0 0 0
139 0 0 0
239 0 0 0
148 0 0 0
53 0 0 0
94 0 0 0
104 0 0 0
241 0 0 0
100 0 0 0
119 0 0 0
73 0 0 0
221 0 0 0
213 0 0 0
39 0 0 0
84 0 0 0
107 0 0 0
120 0 0 0
188 0 0 0
20 0 0 0
93 0 0 0
228 0 0 0
96 0 0 0
74 0 0 0
124 0 0 0
151 0 0 0
204 0 0 0
183 0 0 0
89 0 0 0
237 0 0 0
230 0 0 0
211 0 0 0
247 0 0 0
205 0 0 0
6 0 0 0
215 0 0 0
82 0 0 0
7 0 0 0
249 0 0 0
58 0 0 0
108 0 0 0
219 0 0 0
85 0 0 0
23 0 0 0
115 0 0 0
153 0 0 0
117 0 0 0
10 0 0 0
95 0 0 0
202 0 0 0
173 0 0 0
226 0 0 0
29 0 0 0
236 0 0 0
238 0 0 0
240 0 0 0
246 0 0 0
250 0 0 0
109 0 0 0
