LAMMPS data file via write_data, version 22 Jul 2025, timestep = 14083, units = metal

250 atoms
1 atom types

-3.4686884623078124e-06 15.825981468688461 xlo xhi
0 15.825978000000001 ylo yhi
0 15.825978000000001 zlo zhi

Masses

1 183.841

Atoms # atomic

2 1 1.6777319473632266 1.5617336886690052 1.6423766709172605 0 0 0
4 1 4.842967131042639 1.5618342593195043 1.642223870622943 0 0 0
3 1 3.2604473646260534 15.805276796556578 0.05968865479265953 0 -1 0
12 1 1.677690326011661 4.726961197800927 1.6423773855995023 0 0 0
11 1 0.09516662038654305 3.1443235507574627 0.05979336541936274 0 0 0
14 1 4.842859549449644 4.7270461015860095 1.6422638118446606 0 0 0
13 1 3.2603402957582355 3.1443825145914337 0.059737778977855795 0 0 0
15 1 6.425580995501223 3.144498982053918 0.05962371147791062 0 0 0
126 1 1.6776526740425108 7.892145440139855 1.6424382557004387 0 0 0
21 1 0.09514892441330502 6.309572687993719 0.059844421306756025 0 0 0
127 1 3.2603045067308796 6.309596353583139 0.05976134874909961 0 0 0
132 1 4.842866910908079 7.892262756406543 1.642354271495177 0 0 0
23 1 6.425496654859578 6.309678400133698 0.05969261703913651 0 0 0
131 1 0.09513671526257099 9.474799386726664 0.05984545171473704 0 0 0
133 1 3.26031656227798 9.474874068991806 0.05979556903747614 0 0 0
158 1 6.425493425704285 9.474887320127381 0.05970415521422067 0 0 0
46 1 1.6777404734546597 11.057401436261005 1.642397860021357 -1 0 0
49 1 0.0952221704337261 12.639967804407965 0.05983359017123847 0 0 0
183 1 3.2603620331866736 12.640012773090291 0.05978854579982921 0 0 1
134 1 4.842931766087184 11.05749813576234 1.6423029593308582 0 0 0
145 1 6.425644935081685 12.640117556612205 0.059685834105098416 0 0 0
142 1 1.677817468737656 14.222580199469931 1.642327052152889 0 0 0
1 1 0.09519864276720089 15.80514870801086 0.059744050184249387 0 -1 0
144 1 4.843007602874382 14.22267379302309 1.6422665455767882 0 0 0
146 1 6.425645753942578 15.805316580463778 0.0595955176385244 0 0 0
52 1 1.6777168910285825 1.561745648864607 4.807538592105203 0 0 0
58 1 4.842927408301921 1.5618499056334503 4.807419516827273 0 0 0
38 1 0.09505467684359817 3.144256456471386 3.2250176687458505 0 0 0
37 1 1.6776407082265872 4.726968872386636 4.807574830695879 0 0 0
39 1 4.842818510765722 4.727069092433999 4.807445832135155 0 0 0
185 1 3.260277224680918 3.1443555530208904 3.224910030811815 0 1 0
40 1 6.425483187508506 3.1444452675084253 3.2248459718968263 0 0 0
180 1 0.09507252169495546 6.30958355037951 3.2249898839173317 0 0 0
151 1 1.6775835633803367 7.892163407436116 4.807634228117256 1 0 0
47 1 3.2602167234504806 6.309616328601683 3.224915031672372 0 0 0
152 1 4.842771308445242 7.892239431941563 4.80755962572952 0 0 0
48 1 6.425379695986746 6.309651761381066 3.2249040092362824 0 0 0
156 1 0.095047707084279 9.47473566127275 3.225062231930042 0 0 0
22 1 3.260262803045532 9.474825142853708 3.2249737983651747 0 0 0
160 1 6.425397258675862 9.4748747489152 3.22492505274368 0 0 0
157 1 1.6776546078931096 11.05735967339474 4.807654312457877 0 0 0
166 1 0.09514012587002213 12.639952835041436 3.2250021434144327 0 0 0
168 1 3.260320100999182 12.640002785208964 3.2249279027358844 0 0 0
170 1 4.8428690075473035 11.057444723674863 4.807538401932367 0 0 0
45 1 6.425497052522096 12.640095936234545 3.2249162540338876 0 0 0
26 1 0.09515673711335935 15.80508651566707 3.224969410656982 0 -1 0
167 1 1.677725445808333 14.222565270627472 4.807556403904795 0 0 0
169 1 3.2603821638949113 15.805164786983738 3.224923149039871 0 0 0
232 1 4.842931293030758 14.222650748627341 4.807472203492923 0 0 0
159 1 6.425547224162411 15.805255680707967 3.224846850805969 0 -1 0
56 1 0.09509031911710548 3.144343518557409 6.390137601177286 0 0 0
57 1 3.2602383757918783 3.1444072879738205 6.390091828433894 0 0 0
41 1 6.425454459841601 3.1445374746177577 6.390007702013383 0 0 0
61 1 0.09506498348267713 6.309593140889196 6.390205178262291 0 0 0
62 1 3.2601451254849585 6.30964459276137 6.390154623359466 0 0 0
63 1 6.425329471532321 6.30971465269894 6.390086095740354 0 0 0
176 1 0.09507184894716063 9.474808760259847 6.390214525646622 0 0 0
177 1 3.260216393640892 9.474884122653629 6.390182264541456 0 0 0
178 1 6.425379463367019 9.4748965366613 6.390148442438657 0 0 0
174 1 0.0951516849458885 12.639954263895792 6.3902288789750905 1 0 0
182 1 3.2603077960403826 12.640037958393343 6.390205957205201 0 0 0
192 1 6.425500013144062 12.640108123315922 6.3901253633911175 0 0 0
51 1 0.09511694920016509 15.805118016705155 6.390195043452327 0 -1 0
196 1 3.2603421549156795 15.805219923879113 6.39013144345631 0 0 0
53 1 6.4255185135080435 15.805284908360084 6.390099991087912 0 -1 0
35 1 1.6777813446890857 1.561822866394347 7.972719164380772 0 0 0
67 1 4.8429589102998065 1.5619434016757097 7.972632649119034 0 0 0
68 1 6.425635617084216 15.805407842432222 9.555192383444478 0 -1 0
86 1 0.09514579905970898 3.1444317523863554 9.555370135889099 0 0 0
71 1 1.677679745695638 4.72704168894221 7.972758362904239 0 0 0
66 1 3.2603344224323894 3.144518968478016 9.555283846039137 0 0 0
72 1 4.8428350168056715 4.72712145979171 7.972680264370277 0 0 0
90 1 6.425603074825943 3.1446392059346575 9.555165848460652 0 0 0
96 1 0.09508627297371354 6.30966448698567 9.5554543153684 0 0 0
186 1 1.6776377500717237 7.892225300718953 7.972828583783199 0 0 0
97 1 3.2602345758715408 6.3097111086504185 9.555391539918558 0 0 0
187 1 4.842816128079118 7.892355596596457 7.972730153457535 0 0 0
98 1 6.425450526447741 6.309796472829492 9.555263146331498 0 0 0
206 1 0.09505017166649259 9.474783803711041 9.555540618494184 0 0 0
208 1 3.2602731721696676 9.474892806908652 9.555442420983761 0 0 0
175 1 6.425479403562815 9.474958092033239 9.555354755821432 0 0 0
216 1 0.09516572983650215 12.64000909708579 9.555477031086731 0 0 0
191 1 1.677689649343205 11.057422980349672 7.972838206691171 0 0 0
210 1 4.842859348834238 11.05753777199843 7.9727548614478865 0 0 0
218 1 3.260339790809514 12.640064940108905 9.55541906741119 0 0 0
220 1 6.42558089323454 12.640180944486517 9.555304707739909 0 0 0
24 1 0.09518890008708404 15.80521585643977 9.555395427236576 0 -1 -1
76 1 1.6777780887166291 14.222602294332463 7.972783276477971 0 -1 0
78 1 3.260411293878923 15.80530889802069 9.555312356801021 0 -1 0
80 1 4.842983835502872 14.222742564328918 7.972686260043504 0 -1 0
77 1 1.6778337850287772 1.5618843438890821 11.137919317678428 0 0 0
79 1 4.843115234946805 1.5620299620800375 11.137775484315721 0 0 0
87 1 1.6777775144229434 4.727084657426861 11.137977425097072 0 0 0
111 1 0.09518673651032084 3.1444083829288774 12.720564296343314 0 0 0
89 1 4.842954712896786 4.727172834765629 11.137858196624379 0 0 0
104 1 3.260408595054784 3.1444922203586523 12.720471944716072 0 0 0
115 1 6.425633281435121 3.144614272642157 12.72037503795399 0 0 0
121 1 0.09511125142441887 6.309609033003594 12.72065814735121 0 0 0
201 1 1.6777104077757616 7.8922649517109615 11.138051325815336 0 0 0
122 1 3.2603360758400717 6.309673290889435 12.720556845680946 0 0 0
123 1 4.842921206057058 7.892385401831272 11.137948763837652 0 0 0
135 1 6.425512477215123 6.309706639519446 12.720494035714372 0 0 -1
231 1 0.09515057576192106 9.474834110701275 12.720688993391697 0 0 0
233 1 3.2603758142276886 9.47488150548295 12.720611291386263 0 0 0
203 1 6.42554139305422 9.474959266651014 12.720522253683626 0 0 0
243 1 1.677727780863743 11.05742692568535 11.138064906928433 0 0 0
241 1 0.09519588596762474 12.640059456062634 12.720629768304455 0 0 0
207 1 3.2604445028927715 12.640115504352416 12.720502553563485 0 0 0
209 1 4.842963289973369 11.057580959668266 11.137965788850059 0 0 0
245 1 6.425643731379609 12.640210152640073 12.72046446826836 0 0 0
101 1 0.09524579901825997 15.805220964949246 12.720560673640021 0 -1 0
217 1 1.6778512049701113 14.222670286602527 11.137986471322442 0 0 0
103 1 3.2604971506522693 15.805313943280792 12.720468396312722 0 -1 0
105 1 4.84308459854214 14.222806379529311 11.137858591752373 0 -1 0
244 1 6.42568132478869 15.805381412554585 12.72040293225921 0 0 0
102 1 1.67785149227932 1.5618159817693478 14.303111381308952 0 0 0
5 1 4.843084433452565 1.5619456076935505 14.302976814368108 0 0 -1
113 1 1.6777746551170336 4.727020019827692 14.303176118765858 0 0 0
114 1 4.842979774083645 4.727118886171374 14.303037591493545 0 0 0
226 1 1.6777194942145148 7.892247042400179 14.303210230812839 0 0 0
235 1 4.84292535811287 7.8923325926651735 14.30312626298551 0 0 0
143 1 1.6778137885596756 11.057476202936973 14.303196831964117 0 0 -1
234 1 4.843004011588116 11.057537650198414 14.303104621005772 0 0 0
242 1 1.677863409384635 14.222651686987385 14.303129113385776 0 0 0
27 1 4.843141950189914 14.22280642119492 14.302975794217353 0 0 0
6 1 8.008169074108604 1.561897256986576 1.6422068590582706 0 0 0
8 1 11.173365624948644 1.5618095003202892 1.6422622311431443 0 0 0
10 1 14.338535313719355 1.5617278772392187 1.642357739692486 0 0 0
17 1 9.590771131045635 3.1444997879759033 0.05967128110373529 0 0 0
16 1 8.008070910036432 4.727096380078625 1.642219913576419 0 0 0
18 1 11.173288574614697 4.727019409177208 1.642309903689776 0 0 0
19 1 12.755962945265644 3.144367479285488 0.05978405130003406 0 0 0
20 1 14.338477460317554 4.72693852955064 1.6423976721954379 0 0 0
28 1 9.590666650477909 6.309681795003189 0.05975601271230537 0 0 0
128 1 8.008034255602897 7.892273210204836 1.6423143350597336 0 0 0
129 1 11.1732477932623 7.892203832735281 1.6423869323300617 0 0 0
229 1 12.755890208378272 6.309587775740296 0.059855543972977675 0 0 1
130 1 14.338438806450876 7.8921389411793585 1.642479518870782 0 0 0
29 1 9.59066855145058 9.474863429314652 0.0597783189378809 0 0 1
139 1 12.755913984969688 9.47483766466779 0.05985249367669785 0 0 0
136 1 8.0080769858178 11.057438202666713 1.6423636749858501 0 0 0
147 1 9.590731179107246 12.640042642897095 0.05976123686349199 0 0 0
137 1 11.173306967523635 11.05740042755223 1.6424009242684872 0 0 0
149 1 12.755928883989622 12.639995335345029 0.05980711947551813 0 0 0
140 1 14.338468266004181 11.057342766076463 1.6424572381189007 0 0 0
7 1 9.590803849189463 15.8052874309269 0.05966164993188539 0 -1 0
112 1 8.0081578856354 14.22267140194831 1.642247923228287 0 0 0
9 1 12.755978435785519 15.805184295209308 0.05974693129546462 0 -1 0
148 1 11.173356955572519 14.222589362376972 1.6423216583957871 0 0 0
150 1 14.338578121906831 14.222534611314515 1.6424063326015137 0 0 0
54 1 8.00813111311394 1.5619219658450492 4.807376416261786 0 0 0
44 1 11.173320893447773 1.561818714459105 4.8074622695123495 0 0 0
36 1 14.338497796009953 1.5617497818310138 4.807561567448897 -1 0 0
42 1 9.590682728177004 3.144449610863893 3.2248697573333316 0 0 0
64 1 8.008010063617762 4.72711252965395 4.807410653904776 0 0 0
227 1 12.755915280293637 3.1443349624669774 3.2249435557101833 0 0 0
43 1 11.173230647394913 4.727020225532908 4.807503310149595 0 0 0
65 1 14.338448972328013 4.726940963413705 4.807570730585228 0 0 0
88 1 9.590596848501013 6.309677367401641 3.2249099662238256 0 0 0
153 1 8.007995026649377 7.89228668630538 4.80751325619646 0 0 0
50 1 12.755842905140236 6.309577725361458 3.22495789610915 0 0 0
154 1 11.173197634892702 7.89223474954736 4.807564727541531 0 0 0
155 1 14.33843184874214 7.8921837449860055 4.807614160528445 0 0 0
55 1 9.590568008842961 9.474799778758285 3.225000231013057 0 0 0
164 1 12.755888741173045 9.474795652620072 3.225003711884647 0 0 0
172 1 9.590671834311538 12.640022525646646 3.224940137533047 0 0 0
161 1 8.008036197128273 11.057485781481846 4.807528825227289 0 0 0
138 1 12.755917165313548 12.639946750186976 3.224964733047615 0 0 0
162 1 11.173249457869476 11.057412936898272 4.807597802818249 0 0 0
165 1 14.338440189095532 11.057318467763414 4.807661055282067 0 0 0
32 1 9.590720769855341 15.805228580254164 3.2248851178946247 0 -1 0
171 1 8.008117000599219 14.22269027588512 4.8074384220115025 0 0 0
224 1 12.75591076130599 15.805112827825024 3.2249726859830803 0 -1 0
30 1 11.173326257732839 14.222604986845617 4.807505731256486 0 0 0
197 1 14.33848914777906 14.22250861038887 4.807624523978648 0 -1 0
59 1 9.590714288069504 3.144552823027027 6.3899582660818055 0 0 0
60 1 12.755908606383283 3.1444194304103257 6.390103940865619 0 0 0
181 1 9.590607068192792 6.309736475637033 6.390064030539788 0 0 0
73 1 12.755824416586062 6.309617190080054 6.390181952593237 0 0 0
118 1 9.590596497831681 9.474890833462728 6.3901230930525275 0 0 0
194 1 12.755842191812059 9.47484147831095 6.390221214807878 0 0 0
184 1 9.590669570474796 12.640045191062915 6.390122098046167 0 0 0
163 1 12.75589292716864 12.63994423302029 6.390214744324432 0 0 0
34 1 9.590735322549863 15.805268148212708 6.39005171592413 0 -1 0
33 1 12.755920264991804 15.805118716633613 6.390160553508998 0 -1 0
82 1 9.590843773787162 15.80541280812883 9.555201057658499 0 -1 0
31 1 8.008199037748517 1.5620397845097829 7.972550457054799 0 0 0
69 1 11.173405965239946 1.5619321458294586 7.972608940262635 0 0 0
239 1 14.338569047827281 1.561799183445404 7.972742780295812 0 0 0
92 1 8.008081347270714 4.727240873982054 7.972561809808296 0 0 0
81 1 9.590795238371054 3.1446329851921733 9.55517169191928 0 0 0
94 1 12.75601782359134 3.144520233994917 9.555283007123679 0 0 0
74 1 11.173304106580323 4.72714049046425 7.97266116387653 0 0 0
75 1 14.338477221317252 4.727013330189263 7.972786840372773 0 0 0
179 1 8.008007534084719 7.892391593322001 7.972687857466211 0 0 0
99 1 9.590710763168133 6.309846087340919 9.555248304168083 0 0 0
100 1 12.75590467122728 6.309698784955221 9.555379892730747 0 0 0
189 1 11.173227974844703 7.8922981382055655 7.972779045691143 0 0 0
190 1 14.338446116739904 7.892229465460026 7.972856841922326 0 0 0
119 1 9.590678721047901 9.474934184162883 9.555350712164614 0 0 0
214 1 12.755910690547145 9.47485946335874 9.55546366917096 0 0 0
223 1 9.59077051749828 12.640133560933252 9.555304167142246 0 0 0
193 1 8.00807074423522 11.057582874271656 7.972705815721398 0 0 0
213 1 12.755961969943069 12.640019416560223 9.555434834413557 0 0 0
222 1 11.173287735698489 11.05749188135508 7.972781845021363 0 0 0
195 1 14.338476117875695 11.057403205148677 7.972861009979468 0 0 0
198 1 8.00817174650872 14.222761048539676 7.972649339134956 0 0 0
84 1 12.75599845043029 15.805243558072206 9.555326390500976 0 -1 0
199 1 11.173339263731915 14.22265251822828 7.972739552079793 0 0 0
70 1 14.338578301639737 14.222592118138941 7.972791758726886 0 -1 0
107 1 9.590875393711915 15.805369471044354 12.720415089544282 0 -1 0
219 1 8.008348073488408 1.5621565131415982 11.13765006952325 0 0 0
83 1 11.17346018431345 1.5620078082671065 11.137798061154141 0 0 0
188 1 14.338641775787819 1.5618872379865465 11.137916891635298 0 0 0
117 1 9.590841999726273 3.1446061354088055 12.720370828615806 0 0 0
91 1 8.008195126792137 4.727256219721158 11.137763666906311 0 0 0
85 1 12.755996903297728 3.1444785936207005 12.720537906697563 0 0 0
93 1 11.173402416489479 4.727196375063984 11.137870253554915 0 0 0
95 1 14.338565634460524 4.727061008214303 11.138001333819076 0 0 0
124 1 9.590729743371162 6.3097546058138905 12.720511203977852 0 0 0
25 1 8.00812525663429 7.8924295217497304 11.137878536105939 0 0 -1
125 1 12.755914970897246 6.309644616105019 12.720659140231511 0 0 0
204 1 11.173314796189162 7.892342684635975 11.137980766963155 0 0 0
205 1 14.33849153625968 7.8922419433188855 11.138047779314302 0 0 0
237 1 9.590715078366816 9.474920795002088 12.720549980496148 0 0 0
230 1 12.755904828475517 9.47483199466543 12.720664071967471 0 0 0
211 1 8.008165267719951 11.057599181486674 11.137904900771623 0 0 0
247 1 9.590801272619894 12.640144530177794 12.720494416870066 0 0 0
212 1 11.173361779980217 11.0575429604256 11.137991529893073 0 0 0
240 1 12.755975885561611 12.640057964582986 12.720595949849239 0 0 0
215 1 14.338530921207537 11.057446100673946 11.138071179478713 0 0 0
221 1 8.008285888197616 14.222868280531515 11.137795402401492 0 0 0
109 1 12.755965708326068 15.805235395039864 12.720547572974134 0 -1 0
249 1 11.17341919659511 14.22273774768116 11.137896919194908 0 0 0
225 1 14.338641100018584 14.222649692221605 11.137992284752563 0 0 0
106 1 8.008285739982538 1.5620106714218722 14.302916335080356 0 0 0
108 1 11.17341958717973 1.5619078510025681 14.303045740124363 0 0 0
110 1 14.338641626764273 1.5618107948518027 14.30313228816345 0 0 0
116 1 8.00816833479067 4.727156759983122 14.30302021886089 0 0 0
228 1 11.173336472420205 4.727065616312774 14.303128145469627 0 0 0
120 1 14.33857535633617 4.7270117080384795 14.30318672006014 0 0 0
202 1 8.00811141521124 7.892367062004128 14.303088149818 0 0 0
173 1 11.173321022384897 7.8922992085755 14.303172883365102 0 0 0
200 1 14.338483903392378 7.892179194362851 14.303267531505472 0 0 0
236 1 8.00815436048168 11.057557566350647 14.30310845137729 0 0 0
238 1 11.173353503640719 11.057483046082744 14.303189927752815 0 0 0
141 1 14.338574247482091 11.057396957420323 14.303242847318025 -1 0 -1
246 1 8.008263671512179 14.222791565362552 14.302992066041691 0 0 0
248 1 11.17342566962283 14.222698629472154 14.303084211085787 0 0 0
250 1 14.338634213858246 14.222607945120163 14.303173295485015 0 0 0

Velocities

2 0 0 0
4 0 0 0
3 0 0 0
12 0 0 0
11 0 0 0
14 0 0 0
13 0 0 0
15 0 0 0
126 0 0 0
21 0 0 0
127 0 0 0
132 0 0 0
23 0 0 0
131 0 0 0
133 0 0 0
158 0 0 0
46 0 0 0
49 0 0 0
183 0 0 0
134 0 0 0
145 0 0 0
142 0 0 0
1 0 0 0
144 0 0 0
146 0 0 0
52 0 0 0
58 0 0 0
38 0 0 0
37 0 0 0
39 0 0 0
185 0 0 0
40 0 0 0
180 0 0 0
151 0 0 0
47 0 0 0
152 0 0 0
48 0 0 0
156 0 0 0
22 0 0 0
160 0 0 0
157 0 0 0
166 0 0 0
168 0 0 0
170 0 0 0
45 0 0 0
26 0 0 0
167 0 0 0
169 0 0 0
232 0 0 0
159 0 0 0
56 0 0 0
57 0 0 0
41 0 0 0
61 0 0 0
62 0 0 0
63 0 0 0
176 0 0 0
177 0 0 0
178 0 0 0
174 0 0 0
182 0 0 0
192 0 0 0
51 0 0 0
196 0 0 0
53 0 0 0
35 0 0 0
67 0 0 0
68 0 0 0
86 0 0 0
71 0 0 0
66 0 0 0
72 0 0 0
90 0 0 0
96 0 0 0
186 0 0 0
97 0 0 0
187 0 0 0
98 0 0 0
206 0 0 0
208 0 0 0
175 0 0 0
216 0 0 0
191 0 0 0
210 0 0 0
218 0 0 0
220 0 0 0
24 0 0 0
76 0 0 0
78 0 0 0
80 0 0 0
77 0 0 0
79 0 0 0
87 0 0 0
111 0 0 0
89 0 0 0
104 0 0 0
115 0 0 0
121 0 0 0
201 0 0 0
122 0 0 0
123 0 0 0
135 0 0 0
231 0 0 0
233 0 0 0
203 0 0 0
243 0 0 0
241 0 0 0
207 0 0 0
209 0 0 0
245 0 0 0
101 0 0 0
217 0 0 0
103 0 0 0
105 0 0 0
244 0 0 0
102 0 0 0
5 0 0 0
113 0 0 0
114 0 0 0
226 0 0 0
235 0 0 0
143 0 0 0
234 0 0 0
242 0 0 0
27 0 0 0
6 0 0 0
8 0 0 0
10 0 0 0
17 0 0 0
16 0 0 0
18 0 0 0
19 0 0 0
20 0 0 0
28 0 0 0
128 0 0 0
129 0 0 0
229 0 0 0
130 0 0 0
29 0 0 0
139 0 0 0
136 0 0 0
147 0 0 0
137 0 0 0
149 0 0 0
140 0 0 0
7 0 0 0
112 0 0 0
9 0 0 0
148 0 0 0
150 0 0 0
54 0 0 0
44 0 0 0
36 0 0 0
42 0 0 0
64 0 0 0
227 0 0 0
43 0 0 0
65 0 0 0
88 0 0 0
153 0 0 0
50 0 0 0
154 0 0 0
155 0 0 0
55 0 0 0
164 0 0 0
172 0 0 0
161 0 0 0
138 0 0 0
162 0 0 0
165 0 0 0
32 0 0 0
171 0 0 0
224 0 0 0
30 0 0 0
197 0 0 0
59 0 0 0
60 0 0 0
181 0 0 0
73 0 0 0
118 0 0 0
194 0 0 0
184 0 0 0
163 0 0 0
34 0 0 0
33 0 0 0
82 0 0 0
31 0 0 0
69 0 0 0
239 0 0 0
92 0 0 0
81 0 0 0
94 0 0 0
74 0 0 0
75 0 0 0
179 0 0 0
99 0 0 0
100 0 0 0
189 0 0 0
190 0 0 0
119 0 0 0
214 0 0 0
223 0 0 0
193 0 0 0
213 0 0 0
222 0 0 0
195 0 0 0
198 0 0 0
84 0 0 0
199 0 0 0
70 0 0 0
107 0 0 0
219 0 0 0
83 0 0 0
188 0 0 0
117 0 0 0
91 0 0 0
85 0 0 0
93 0 0 0
95 0 0 0
124 0 0 0
25 0 0 0
125 0 0 0
204 0 0 0
205 0 0 0
237 0 0 0
230 0 0 0
211 0 0 0
247 0 0 0
212 0 0 0
240 0 0 0
215 0 0 0
221 0 0 0
109 0 0 0
249 0 0 0
225 0 0 0
106 0 0 0
108 0 0 0
110 0 0 0
116 0 0 0
228 0 0 0
120 0 0 0
202 0 0 0
173 0 0 0
200 0 0 0
236 0 0 0
238 0 0 0
141 0 0 0
246 0 0 0
248 0 0 0
250 0 0 0
