LAMMPS data file via write_data, version 22 Jul 2025, timestep = 40249, units = metal

250 atoms
1 atom types

-0.02113043088169664 15.84710843088174 xlo xhi
0 15.825978000000001 ylo yhi
0 15.825978000000001 zlo zhi

Masses

1 183.841

Atoms # atomic

11 1 1.6980670281205 1.476626144042081 1.4533965460945462 0 0 0
4 1 4.87910577584355 1.462563533036385 1.4486664306621237 0 0 0
180 1 1.706693153237018 4.624917839208621 1.445232767949304 0 0 0
14 1 4.881010502738389 4.621668231751975 1.4461849054385616 0 0 0
126 1 0.12337031374518387 6.204763847249928 3.027693251862639 0 0 0
132 1 4.877976463578384 7.784893079713347 1.450257179465222 0 0 0
131 1 1.701678923525918 7.7805779888737545 1.4508954488303034 0 0 0
207 1 1.6892495697737204 10.943458701548252 1.4625845523003338 0 0 0
134 1 4.851029505331342 10.981537383985398 1.4659263319153801 0 0 0
142 1 3.035396316524233 12.79218304034593 0.11590182357741002 0 0 0
46 1 1.579667888806871 14.245966706165417 1.5723329166017066 -1 0 0
83 1 4.889332834672652 14.134776686400038 1.4612268172254457 0 0 0
52 1 1.7196018274136131 1.455973327255348 4.617060961154353 0 0 0
185 1 4.882785382838518 1.4573254539792009 4.618223328512879 0 1 0
37 1 1.714149010852377 4.623204659732104 4.614745389057679 0 0 0
38 1 0.12337642823738776 3.0495269368814943 3.0290177052095757 0 0 0
116 1 3.296586657358632 3.04391094498945 3.0285503785146095 0 0 0
152 1 4.882028750322573 4.621659000548913 4.615991499625945 0 0 0
40 1 6.466474315390927 3.039661664375095 3.0294107933604444 0 0 0
157 1 1.7101938699159676 7.784751589884822 4.613643554948043 1 0 0
47 1 3.295296441094312 6.2039006837630355 3.031050044443726 0 0 0
212 1 4.8791986499374245 7.784856614160343 4.612221310192848 0 0 0
48 1 6.467134360805034 6.202761068652337 3.030274372056304 0 0 0
156 1 0.11675633712451716 9.366574586480354 3.0326267101510025 0 0 0
22 1 3.2896081536178623 9.371386655817588 3.033756865859092 0 0 0
160 1 6.461187696742069 9.373752653753476 3.032452475181377 0 0 0
166 1 0.11030879695817809 12.53308396131189 3.038519231550394 0 0 0
176 1 1.7035021606652092 10.953265929328934 4.618065195657864 0 0 0
170 1 4.875336334856687 10.956739544335258 4.613878218124038 0 0 0
232 1 3.272664072424601 12.55677095127224 3.0497519246810083 0 0 0
45 1 6.4637249763884705 12.539687638897238 3.0340016664706804 0 0 0
26 1 0.08552045715427378 15.736445841062016 3.065015331304913 0 -1 0
167 1 1.6996180522495938 14.128993100415785 4.634577607204575 0 0 0
169 1 3.2963825718211583 15.710792359388826 3.0397266258642377 0 0 0
192 1 4.877955690342423 14.124012901049396 4.619953376479857 0 0 0
159 1 6.467896821409659 15.70487161863266 3.03378506070576 0 -1 0
51 1 1.7352321624697813 1.4763750822757835 7.80029321142408 0 0 0
227 1 4.862090551082793 1.4753987259665233 7.797786895038455 0 0 0
34 1 6.459913306555452 15.707531249517453 6.203167811812727 0 -1 0
70 1 1.7344420612302782 4.597746021290133 7.7949876434818774 0 -1 0
71 1 0.15710361067905898 3.0288138922429 6.195257031148736 0 0 0
57 1 3.298283347939736 3.0371824680140214 6.175139752513606 0 0 0
72 1 4.8465386308950835 4.593714816907499 7.794951365885309 0 0 0
41 1 6.450413873102102 3.032626358616215 6.1993684162714615 0 0 0
75 1 0.13751877098549636 6.194035960072395 6.1969378378647 1 0 0
186 1 1.707032932347658 7.779551649877262 7.7747148627592555 0 0 0
62 1 3.294931001100328 6.192978484848999 6.20302845814219 0 0 0
210 1 4.87471828626037 7.779592915563844 7.770215225941658 0 0 0
63 1 6.45684003492582 6.193252176225335 6.19596281789062 0 0 0
61 1 0.12259783207110196 9.366306846690906 6.194658389457447 0 0 0
177 1 3.2928548729483946 9.367323519917656 6.19377009956882 0 0 0
19 1 6.468569888773616 9.364720086114083 6.185528987159323 0 0 0
174 1 0.11954946070189917 12.534038128011135 6.199684595150843 1 0 0
191 1 1.7055822197946269 10.951286067638751 7.776289007844705 0 0 0
182 1 3.291659170979077 12.539323715705189 6.198907189938232 0 0 0
121 1 4.8809698569561535 10.951092375142284 7.766238934692259 0 0 0
9 1 6.4657303323468165 12.537542451236531 6.19348498656423 0 -1 0
78 1 0.13077428664958185 15.70815551063299 6.2131310017893515 1 -1 0
97 1 1.7069473163793805 14.124745329806524 7.779819349626232 0 0 0
196 1 3.29678313555759 15.712720649573773 6.210452481523106 0 0 0
80 1 4.88093962887372 14.1251966591665 7.776994877150024 0 -1 0
86 1 0.11096113613948566 3.0346212540915047 9.357117951816802 0 0 0
90 1 6.4828717515331435 3.030770606147698 9.356604796070133 0 0 0
222 1 0.1356138195846805 6.187804192358161 9.353112624144922 0 0 0
178 1 3.284048927374966 6.221892053701595 9.360233866617394 0 0 0
98 1 6.390292094710224 6.196171018426844 9.366676985219986 0 0 0
203 1 0.1212627579049685 9.365435894218793 9.357901937711002 1 0 0
248 1 3.287756690757066 9.369668602495436 9.353711746194845 0 0 0
209 1 6.487841132334944 9.342785262430247 9.309869650544792 0 0 0
216 1 0.12026173818848908 12.535960190233196 9.359519848065146 0 0 0
218 1 3.2893219039737986 12.538632597994965 9.348639715239036 0 0 0
220 1 6.465308449255051 12.54255039551682 9.353520261439504 0 0 0
24 1 0.13313265964011725 15.709991267573413 9.359973698668325 0 -1 -1
76 1 3.2950983689525386 15.68582118541064 9.359853086955551 0 -1 0
68 1 6.457177951074219 15.711565699744286 9.358455655381167 0 -1 0
77 1 1.7284758738034163 1.478917311111791 10.919868351804494 0 0 0
67 1 4.860004483358633 1.4768000248245186 10.920528347633821 0 0 0
187 1 1.726556334708983 4.5992333306390245 10.919413165347205 0 0 0
87 1 0.13209220298559277 3.039761819839461 12.510437739925672 0 0 0
102 1 3.2917054493267432 3.037302545447995 12.539281333037064 0 0 0
140 1 4.8516547173270075 4.5904370798614025 10.919011350268772 0 0 0
168 1 6.458259883498375 3.0299823177084617 12.508418569667857 0 0 0
125 1 0.12787710254791318 6.195098804422374 12.513221260287436 1 0 0
201 1 1.6987593092560085 7.7830944290387 10.943608705180567 0 0 0
123 1 4.831248269054082 7.803157849559681 10.965618264841034 0 0 0
113 1 3.2870519947460197 6.1868069453942125 12.51153212264574 0 0 0
129 1 6.478423795608791 6.139739131701096 12.487538268966205 0 0 0
231 1 0.11681958883006953 9.37233076141208 12.527110593169986 0 0 0
233 1 3.258810462702529 9.392552969795965 12.547398337488497 0 0 0
25 1 5.872273022988949 9.96169376889347 13.11525747891472 0 0 -1
151 1 7.262724181628499 8.568275215588052 11.73477769443499 1 0 0
190 1 1.7005214039319694 10.954241394032904 10.940035239485717 1 0 0
208 1 0.11464888130958918 12.540955292183236 12.524446818238603 0 0 0
200 1 4.8840839631242075 10.947825000038648 10.881500187298956 0 0 0
143 1 3.2800080851531703 12.550729076977548 12.480851755080591 0 0 -1
245 1 6.440380395100042 12.571519691687946 12.547255540421341 0 0 0
217 1 1.7005741012204034 14.130658969124312 10.934929166306304 0 0 0
223 1 0.12390167766254065 15.713384292006669 12.511866048303562 1 -1 0
79 1 3.288841680530616 15.71771119828849 12.513809420739793 0 -1 0
105 1 4.877688443100424 14.130278622632977 10.939777286924649 0 -1 0
244 1 6.453203914138793 15.713231120456792 12.519211364374778 0 0 0
111 1 1.7025799817437222 1.4632219598407794 14.09988175362557 0 0 0
5 1 4.875049215034095 1.4590817032675198 14.10318572175909 0 0 -1
110 1 1.7054692772396949 4.62139678931113 14.098169360042146 1 0 0
2 1 0.1199220173045194 3.0442629370346688 15.682953346267881 1 0 0
114 1 4.880019980004269 4.610459515320218 14.09783146278093 0 0 0
13 1 3.2913030364564295 3.0425305447402384 15.69056568808484 0 0 -1
15 1 6.464765992212569 3.0377309114846556 15.68642080304473 0 0 -1
122 1 1.7025448856927974 7.783336382063359 14.104924866529686 0 0 0
12 1 0.12005378012477763 6.2044107279049845 15.684939204716803 1 0 -2
235 1 4.8853920656661485 7.722857067328072 14.095091258326569 0 0 0
127 1 3.2899086294698088 6.1928180387702865 15.689145855382936 0 0 -1
135 1 6.4655864621230466 6.196889774646958 15.691786207930798 0 0 -1
133 1 3.28203033858249 9.328388832937982 15.69883219254311 0 0 -1
158 1 6.44155967547452 9.393485602428214 15.722357439184721 0 0 -1
49 1 1.685114942533142 10.98190980830446 14.134236489831217 0 0 -1
150 1 0.0975731632265518 12.556769890641052 15.708555627445094 1 0 -1
234 1 4.464668133781152 11.369486807505123 14.519022260492658 0 0 0
145 1 6.5090782452517635 12.54651320195299 15.698646196116291 0 0 -1
1 1 0.11037123630593512 15.710698162353955 15.683718742742366 0 -1 -1
242 1 1.6895660812153117 14.138609518895981 14.093016412990382 0 0 0
27 1 4.849221455359969 14.142242176683247 14.131523632637084 0 0 0
3 1 3.2722535569346642 15.722626353677473 15.70621314785137 0 -1 -1
144 1 6.463186842578545 15.706259834796661 15.690191319523644 0 0 -1
141 1 0.11519036280114055 9.371162610275217 15.691628885157902 0 0 -1
146 1 8.051770240862593 1.4577250172261327 1.443848702154304 0 1 0
8 1 11.224916488629159 1.4550581860068228 1.4394364017861956 0 0 0
10 1 14.401543360234447 1.4573354246693193 1.4332804050058785 0 0 0
17 1 8.053377348483943 4.619543014467824 1.4458672469031306 0 0 0
243 1 11.230004789263939 4.618520021924439 1.441053385190437 0 0 0
225 1 14.404463399975942 4.622992539879963 1.4390247694566929 0 1 1
128 1 8.0503955775029 7.788310464320559 1.4539369189695994 0 0 0
229 1 11.228925030393713 7.78500487548993 1.445654431098753 0 0 1
130 1 14.401596924453601 7.786306394923759 1.4435582201494526 0 0 0
136 1 8.054256711846227 10.953632226735351 1.4508341250574188 0 0 0
137 1 11.227050814007766 10.950960921708027 1.4462275268141815 0 0 0
164 1 14.394946730399004 10.952865829044724 1.4489085286616397 0 0 0
112 1 8.058202235511434 14.124247313969224 1.4511364047336461 0 0 0
224 1 11.223304723873744 14.118357433608937 1.44555492317133 0 -1 0
101 1 14.379659873793784 14.127140772056798 1.453965132682882 -1 -1 1
54 1 8.049045163856876 1.4530348126586654 4.608811191463191 0 0 0
44 1 11.225359286169978 1.4480479853370063 4.602750673293681 0 0 0
56 1 14.44289307624768 1.4189574809224876 4.574746532087275 -1 0 0
42 1 9.64111084420277 3.034786875641429 3.022326466830622 0 0 0
64 1 8.053465369595497 4.615833429321746 4.608169677066057 0 0 0
35 1 11.249089562821595 4.598841644116215 4.591381769751698 0 0 0
36 1 12.824729016618825 3.0295142798616665 3.007713462405916 -1 0 0
65 1 14.416072634449694 4.621761088000391 4.602479854452468 0 0 0
88 1 9.644813462641821 6.198036060797699 3.0263344853472396 0 0 0
161 1 8.0566774082767 7.778617588654039 4.6086964832255575 0 0 0
181 1 11.232406218077646 7.7823436539250945 4.605082089315163 0 0 0
50 1 12.81984966971797 6.2013476472344635 3.021617103212377 0 0 0
155 1 14.40937784023204 7.785834620119516 4.607551579723767 0 0 0
55 1 9.64016638821238 9.367282709089618 3.029038563139645 0 0 0
154 1 12.814383277170828 9.367224316672521 3.0271044826279487 0 0 0
66 1 9.638342024152198 12.534128887467999 3.029620526105826 0 0 0
172 1 8.052117473101733 10.951771429890686 4.610493358400087 0 0 0
162 1 11.226676409501197 10.949991004759994 4.609465683281514 0 0 0
138 1 12.809296033582873 12.53265264177977 3.0300132151472248 0 0 0
165 1 14.400997062657247 10.94964342666328 4.612355731054416 0 0 0
32 1 9.637836740407103 15.699470954195485 3.027438446476479 0 -1 0
171 1 8.050652089133678 14.118672483421689 4.614012358600085 0 0 0
103 1 12.803490031253933 15.70025749132474 3.0281047727283608 -1 -2 0
30 1 11.225183053141489 14.112634792549834 4.60976359813906 0 0 0
197 1 14.403081320787582 14.108223935941757 4.613491019796242 0 -1 0
91 1 11.248976186142139 1.4356822399438682 7.7538160477909335 0 0 0
239 1 14.420089699020286 1.4462436410615964 7.778222494430122 0 0 0
59 1 9.624667556425065 3.0218409776225554 6.178385943928808 0 0 0
149 1 8.004113170513426 4.613259068166402 7.767996214248797 0 0 -1
60 1 12.949483319475279 2.9080974979297767 6.066147491948332 0 0 0
74 1 11.48637600529939 4.361940725207862 7.511118599109454 0 0 0
206 1 14.434163336905227 4.599490517246918 7.753267113901615 0 0 0
179 1 8.075139032605223 7.759681920029895 7.738123831225134 0 0 0
175 1 9.668084638512441 6.173040354750346 6.172540043508684 0 0 0
92 1 12.836620432499453 6.211778024545844 6.174796040734579 0 0 0
189 1 11.240520399914304 7.824770159277798 7.761812713574468 0 0 0
43 1 14.41106083472523 7.7807017014590505 7.77182755683412 0 0 0
118 1 9.642389429781135 9.368819133342912 6.187114456719208 0 0 0
194 1 12.822076703236517 9.37300502036843 6.186730020079657 0 0 0
184 1 9.639436729995191 12.53445424859199 6.192482032780402 0 0 0
193 1 8.05280447650266 10.95619274105055 7.770537574831012 0 0 0
163 1 12.81592551719789 12.53129838686996 6.193077926177676 0 0 0
214 1 11.231169299031066 10.960159548262228 7.771917289381991 0 0 0
195 1 14.403752024639498 10.94969393165787 7.776870750838189 0 0 0
69 1 9.64021788416254 15.694322781563862 6.190370087542996 0 -1 0
198 1 8.052043072877256 14.120578309977194 7.776312944881058 0 0 0
199 1 11.229949491823756 14.114027981742797 7.773999027929546 0 0 0
33 1 12.825967461703708 15.680248345179786 6.184972393464802 0 -1 0
16 1 14.405987405214391 14.114270497952068 7.779212901765334 0 0 0
31 1 8.050223265573708 1.451256022085262 7.772435000097098 0 0 0
39 1 9.643155957405144 15.698722863777013 9.353532321314253 0 0 0
53 1 9.671446874770892 3.0173237170075193 9.328301323702645 0 -1 0
94 1 12.83221339594336 3.0216874342126805 9.364824742031251 0 0 0
99 1 10.062098876597222 5.781516971103725 8.939797036422808 0 0 0
104 1 8.639635657958003 7.1831951263654235 10.333921425187961 0 0 0
100 1 12.841024679562905 6.1711171370739795 9.32667161915271 0 0 0
119 1 9.633760361933685 9.42451848973 9.363837317518346 0 0 0
73 1 12.821045117186083 9.367389699661782 9.355203023036065 0 0 0
221 1 9.638886107533148 12.544104085684138 9.359107516261712 0 0 0
213 1 12.81659126821709 12.533988381717881 9.358354728236797 0 0 0
84 1 12.821213950976771 15.694886124894209 9.35634271003677 0 -1 0
249 1 11.228501647333006 14.118515414902095 10.939241568486402 0 0 0
107 1 8.052885850240719 1.4519554479376502 10.935156693157722 0 0 0
120 1 11.23229949193522 1.4503707300165996 10.937253420940193 0 0 0
188 1 14.412166818315024 1.45258562330631 10.941214650930581 0 0 0
81 1 8.071614550856802 4.583861129437147 10.914812962557388 0 0 0
106 1 9.640152166964592 3.032615229408874 12.521697740029165 0 0 0
23 1 12.823594769618136 3.0319767319742685 12.526014430306793 0 0 0
93 1 11.240979810502456 4.607178194615313 10.982385673422392 0 0 0
96 1 14.414220157135132 4.6164337191497 10.936839462672243 -1 0 0
124 1 9.630216447882807 6.210682741586546 12.576654170313276 0 0 0
204 1 11.260069505133451 7.756822481356556 10.91131988727255 0 0 0
183 1 12.821956084139178 6.200606268729194 12.521402818338867 0 0 1
89 1 14.40851186289627 7.777670085815554 10.932847923627747 0 0 0
237 1 9.690749318305226 9.342129393362825 12.496561521433398 0 0 0
230 1 12.823740574498187 9.363854701701179 12.517835711305949 0 0 0
211 1 8.0285509487294 10.999127024656236 10.96408151295804 0 0 0
247 1 9.64460679288251 12.539946816789753 12.521961628490708 0 0 0
205 1 11.233214029284536 10.955197962117062 10.939345906406324 0 0 0
6 1 12.81587482849063 12.5355789751289 12.522193444913691 0 0 0
215 1 14.402965492689349 10.951091016633042 10.940446426513471 0 0 0
82 1 8.048157518582162 14.127756603653962 10.942236414689177 0 -1 0
7 1 9.638661275308733 15.701093266460973 12.520863463376251 0 -1 -1
58 1 12.8152464123417 15.699680317543782 12.520626218948832 0 0 0
108 1 14.402962713330046 14.11886170268266 10.939535503504262 0 0 0
219 1 8.049957568302775 1.4570274215246335 14.102545780402549 0 0 0
85 1 11.226305288911592 1.45555141690712 14.102444968878935 0 0 0
228 1 14.402454477050757 1.45904033094057 14.100372698100665 0 0 0
153 1 8.051227696820586 4.614101834889917 14.10714747069565 0 0 0
18 1 9.639171613389433 3.0373488702054012 15.68651955377657 0 0 -1
20 1 11.230570572386172 4.617490732278023 14.112582509996992 0 0 0
117 1 12.815645421423232 3.0382332900364366 15.683147696397311 0 0 0
95 1 14.405116545229081 4.6208983111290225 14.100624631153629 0 0 0
28 1 9.639779501748528 6.203146725848677 15.697411835980528 0 0 -1
202 1 8.029766352400632 7.8062334439947865 14.158402399532473 0 0 0
21 1 12.816818219002919 6.20342563914283 15.686292414622304 -1 0 -1
173 1 11.23346799070068 7.784481531971298 14.10863373197158 0 0 0
226 1 14.404689180038929 7.784560159379133 14.102520241437519 -1 0 0
29 1 9.645920904077503 9.368341261849212 15.693581292175685 0 0 0
139 1 12.81618122172977 9.368378139202445 15.688058216875422 0 0 -1
241 1 14.396449175650961 14.123663563833723 14.103903848322428 0 0 0
236 1 8.11326606261021 10.943832078060511 14.097645753661594 0 0 0
147 1 9.649681053408916 12.53839053747746 15.690832454821097 0 0 -1
238 1 11.237968431099267 10.949845272102136 14.1033587043882 0 0 0
148 1 12.8105857539855 12.537048766037463 15.689338758757646 0 0 -1
240 1 14.399280836987144 10.956012307971012 14.108825416146086 0 0 0
246 1 8.051892560330534 14.125226005668711 14.104792661651391 0 0 0
109 1 9.637963265144242 15.701611423773585 15.686142006446739 0 -1 0
115 1 11.226575020024677 14.11892766783408 14.10371676992317 0 0 0
250 1 12.809038962028067 15.702153509635838 15.684654363280249 0 0 0

Velocities

11 0 0 0
4 0 0 0
180 0 0 0
14 0 0 0
126 0 0 0
132 0 0 0
131 0 0 0
207 0 0 0
134 0 0 0
142 0 0 0
46 0 0 0
83 0 0 0
52 0 0 0
185 0 0 0
37 0 0 0
38 0 0 0
116 0 0 0
152 0 0 0
40 0 0 0
157 0 0 0
47 0 0 0
212 0 0 0
48 0 0 0
156 0 0 0
22 0 0 0
160 0 0 0
166 0 0 0
176 0 0 0
170 0 0 0
232 0 0 0
45 0 0 0
26 0 0 0
167 0 0 0
169 0 0 0
192 0 0 0
159 0 0 0
51 0 0 0
227 0 0 0
34 0 0 0
70 0 0 0
71 0 0 0
57 0 0 0
72 0 0 0
41 0 0 0
75 0 0 0
186 0 0 0
62 0 0 0
210 0 0 0
63 0 0 0
61 0 0 0
177 0 0 0
19 0 0 0
174 0 0 0
191 0 0 0
182 0 0 0
121 0 0 0
9 0 0 0
78 0 0 0
97 0 0 0
196 0 0 0
80 0 0 0
86 0 0 0
90 0 0 0
222 0 0 0
178 0 0 0
98 0 0 0
203 0 0 0
248 0 0 0
209 0 0 0
216 0 0 0
218 0 0 0
220 0 0 0
24 0 0 0
76 0 0 0
68 0 0 0
77 0 0 0
67 0 0 0
187 0 0 0
87 0 0 0
102 0 0 0
140 0 0 0
168 0 0 0
125 0 0 0
201 0 0 0
123 0 0 0
113 0 0 0
129 0 0 0
231 0 0 0
233 0 0 0
25 0 0 0
151 0 0 0
190 0 0 0
208 0 0 0
200 0 0 0
143 0 0 0
245 0 0 0
217 0 0 0
223 0 0 0
79 0 0 0
105 0 0 0
244 0 0 0
111 0 0 0
5 0 0 0
110 0 0 0
2 0 0 0
114 0 0 0
13 0 0 0
15 0 0 0
122 0 0 0
12 0 0 0
235 0 0 0
127 0 0 0
135 0 0 0
133 0 0 0
158 0 0 0
49 0 0 0
150 0 0 0
234 0 0 0
145 0 0 0
1 0 0 0
242 0 0 0
27 0 0 0
3 0 0 0
144 0 0 0
141 0 0 0
146 0 0 0
8 0 0 0
10 0 0 0
17 0 0 0
243 0 0 0
225 0 0 0
128 0 0 0
229 0 0 0
130 0 0 0
136 0 0 0
137 0 0 0
164 0 0 0
112 0 0 0
224 0 0 0
101 0 0 0
54 0 0 0
44 0 0 0
56 0 0 0
42 0 0 0
64 0 0 0
35 0 0 0
36 0 0 0
65 0 0 0
88 0 0 0
161 0 0 0
181 0 0 0
50 0 0 0
155 0 0 0
55 0 0 0
154 0 0 0
66 0 0 0
172 0 0 0
162 0 0 0
138 0 0 0
165 0 0 0
32 0 0 0
171 0 0 0
103 0 0 0
30 0 0 0
197 0 0 0
91 0 0 0
239 0 0 0
59 0 0 0
149 0 0 0
60 0 0 0
74 0 0 0
206 0 0 0
179 0 0 0
175 0 0 0
92 0 0 0
189 0 0 0
43 0 0 0
118 0 0 0
194 0 0 0
184 0 0 0
193 0 0 0
163 0 0 0
214 0 0 0
195 0 0 0
69 0 0 0
198 0 0 0
199 0 0 0
33 0 0 0
16 0 0 0
31 0 0 0
39 0 0 0
53 0 0 0
94 0 0 0
99 0 0 0
104 0 0 0
100 0 0 0
119 0 0 0
73 0 0 0
221 0 0 0
213 0 0 0
84 0 0 0
249 0 0 0
107 0 0 0
120 0 0 0
188 0 0 0
81 0 0 0
106 0 0 0
23 0 0 0
93 0 0 0
96 0 0 0
124 0 0 0
204 0 0 0
183 0 0 0
89 0 0 0
237 0 0 0
230 0 0 0
211 0 0 0
247 0 0 0
205 0 0 0
6 0 0 0
215 0 0 0
82 0 0 0
7 0 0 0
58 0 0 0
108 0 0 0
219 0 0 0
85 0 0 0
228 0 0 0
153 0 0 0
18 0 0 0
20 0 0 0
117 0 0 0
95 0 0 0
28 0 0 0
202 0 0 0
21 0 0 0
173 0 0 0
226 0 0 0
29 0 0 0
139 0 0 0
241 0 0 0
236 0 0 0
147 0 0 0
238 0 0 0
148 0 0 0
240 0 0 0
246 0 0 0
109 0 0 0
115 0 0 0
250 0 0 0
