LAMMPS data file via write_data, version 22 Jul 2025, timestep = 26313, units = metal

250 atoms
1 atom types

-0.021191598752407108 15.84716959875242 xlo xhi
0 15.825978000000001 ylo yhi
0 15.825978000000001 zlo zhi

Masses

1 183.841

Atoms # atomic

11 1 1.7724083161384743 1.4842302290845057 1.6181751615509568 0 0 0
4 1 4.945441548099866 1.484506642522034 1.6155231630579028 0 0 0
116 1 1.772084135082572 4.645928444687363 1.6179130534003097 0 0 0
110 1 0.19662108254114 3.0702771478808657 0.04496138592289615 1 0 1
14 1 4.94740846714618 4.652064818011021 1.615754380887315 0 0 0
13 1 3.364164847289496 3.07272031801202 0.03649376583722231 0 0 0
15 1 6.531875269740276 3.0713746398235133 0.036014643844638206 0 0 0
12 1 0.22193445085815047 6.278161971155963 0.0707342900465751 0 0 0
126 1 1.7323180259431854 7.789876648274885 1.5782326789049497 0 0 0
132 1 4.946329587370746 7.8200687958063035 1.6075362358171639 0 0 0
127 1 3.369866095235109 6.238598324474998 0.03427859206941688 0 0 0
135 1 6.532226020959259 6.241193391643813 0.033506893966395876 0 0 0
131 1 0.19429116925453635 9.427946781268362 0.03404611295212573 0 0 0
133 1 3.3475987593224987 9.374727817267384 0.014168759088897583 0 0 0
158 1 6.520451586952154 9.411632723454979 0.02708329551043929 0 0 0
46 1 1.7795885257132065 11.01549822330837 1.580892917007694 -1 0 0
49 1 0.1631127408028298 12.574040216609976 0.033113064546460055 0 0 0
134 1 4.899866775214353 10.99179128482935 1.5622682043752347 0 0 0
145 1 6.5467543078168 12.567681961349306 0.031100215467180562 0 0 0
142 1 1.7860963785946387 14.135220618868077 1.5919916273500285 0 0 0
1 1 0.1997312792965534 15.722743575922559 0.0394482964624363 0 -1 0
83 1 4.920068649058881 14.132498291673622 1.5883261157206996 0 0 0
3 1 3.359000287257118 15.751306503608975 0.03398810511628667 0 -1 0
144 1 6.521016020874748 15.724027681310638 0.0352979661369874 0 0 0
52 1 1.7710566401339727 1.4880079874301502 4.780661141929814 0 0 0
58 1 4.9392371380160975 1.4986278977215493 4.775646589772844 0 0 0
37 1 1.7701821524291734 4.65261801046333 4.783660054169119 0 0 0
38 1 0.18678418800756183 3.07077908263465 3.2046830538733655 0 0 0
39 1 4.941988883608713 4.654189294209115 4.779256671764099 0 0 0
185 1 3.357286183967217 3.068822992178942 3.197589214456746 0 1 0
40 1 6.531045735926555 3.072468049626957 3.197546235872259 0 0 0
180 1 0.18410927897168544 6.240943529427039 3.2100347080559044 0 0 0
151 1 1.7650799198003764 7.818483971203005 4.779016707660248 1 0 0
47 1 3.3490002887215247 6.221844878761843 3.188722195899406 0 0 0
152 1 4.921893769864603 7.80704294652506 4.757696488507281 0 0 0
48 1 6.529179932024558 6.235840939407459 3.194850353582689 0 0 0
156 1 0.17142606147182976 9.40445748473857 3.1810292183699986 0 0 0
22 1 3.224478327240216 9.297792832400273 3.0503323387745014 0 0 0
160 1 6.535508693007249 9.395787813481832 3.1699526219862064 0 0 0
166 1 0.1879919810500241 12.570027380820697 3.1845303246829193 0 0 0
176 1 1.7497367703172262 10.967668046998185 4.753643937867277 0 0 0
170 1 4.68879681550111 10.721058400872032 4.523058378774564 0 0 0
232 1 3.3418493801161246 12.578519740029826 3.197560947297496 0 0 0
45 1 6.488063239505713 12.540317266056496 3.163889248967867 0 0 0
26 1 0.19103501548907362 15.726797957038265 3.1922581268236163 0 -1 0
167 1 1.7648972015272024 14.15026924286557 4.770964592019126 0 0 0
169 1 3.350210839310439 15.73004453355451 3.1804121665510166 0 0 0
192 1 4.928383395725296 14.196484137370039 4.758935496640644 0 0 0
159 1 6.520848371835956 15.728082038821764 3.1840266881849466 0 -1 0
56 1 0.18645536997928341 3.0733569124719122 6.366168627466658 0 0 0
57 1 3.3564976140105003 3.073555207847292 6.36476792257166 0 0 0
41 1 6.531238708864632 3.083705957256674 6.364973967331195 0 0 0
75 1 0.1845139055262922 6.240793742526104 6.365618054229963 1 0 0
62 1 3.3539963938820363 6.235367119530591 6.362572430205944 0 0 0
63 1 6.525928937509235 6.239463189799174 6.359485661351283 0 0 0
61 1 0.17886851814797358 9.402823319661536 6.36156375413039 0 0 0
177 1 3.3386188145730737 9.389522242000272 6.37575303699272 0 0 0
210 1 6.501074420725126 9.38642931414177 6.333892730582287 0 0 0
174 1 0.18316351160019498 12.566219981933715 6.358249526254589 1 0 0
182 1 3.3340441055319725 12.541113818507286 6.335584924414011 0 0 0
9 1 6.104964477169298 12.159192398219991 5.941232309522159 0 -1 0
78 1 0.18585789013084664 15.733874496812936 6.363591298511862 1 -1 0
196 1 3.3512620562456696 15.734451338348915 6.360052453469164 0 0 0
198 1 7.52060103497346 13.552153533482551 7.351913240886881 0 0 0
34 1 6.535282351204381 15.790709224367697 6.368236595468336 0 -1 0
51 1 1.7710539470515232 1.491131916806956 7.948893851668889 0 0 0
227 1 4.938173088420409 1.4953856677875739 7.947064462355181 0 0 0
86 1 0.1914271186737996 3.0788541644518745 9.53443433169539 0 0 0
71 1 1.7726484736469719 4.6569641057300295 7.948584129585146 0 0 0
35 1 3.357361555316454 3.0749238892947095 9.53153197696224 0 0 0
72 1 4.94351623026041 4.658654016787141 7.9470370359234686 0 0 0
90 1 6.525528014157834 3.0793260777507845 9.531023181781192 0 0 0
222 1 0.18979376651947152 6.245775438250467 9.529789790558747 0 0 0
186 1 1.766931792615187 7.819622314362348 7.949888031210661 0 0 0
187 1 3.3593036440469874 6.240588869298794 9.530219626106524 0 0 0
178 1 4.940115465805446 7.818942659238609 7.945088307919068 0 0 0
98 1 6.530992678327488 6.2419021540329345 9.530157032903858 0 0 0
190 1 0.18488336129755276 9.40798062843059 9.532059725386882 1 0 0
208 1 3.3520489623546763 9.401561875173467 9.53894041843278 0 0 0
179 1 6.528404964915352 9.40086356113392 9.533419430979363 0 0 0
216 1 0.18703597320369236 12.570977234583518 9.532964732208281 0 0 0
191 1 1.7652729181070066 10.984303599869138 7.945828670705124 0 0 0
218 1 3.3521239642178315 12.56853661588425 9.531492372551796 0 0 0
220 1 4.933820561031836 10.977390913977143 7.9888832821789295 0 0 0
221 1 6.535940918259457 12.5771021624946 9.593926780441375 0 0 0
97 1 1.7667277669580341 14.147805004906559 7.942890337283469 0 0 0
24 1 0.19007000719785191 15.740118381837766 9.538613600425599 0 -1 -1
76 1 3.3492025619395407 15.730172148722287 9.530009727857484 0 -1 0
80 1 4.908923659909852 14.126540168526665 7.921052774601256 0 -1 0
68 1 6.478809097046989 15.708666944699482 9.50783537917279 0 -1 0
77 1 1.776063965244014 1.4937403952071096 11.120837869159903 0 0 0
67 1 4.932746217607819 1.4876730552817936 11.114819877186962 0 0 0
87 1 1.77921761785053 4.661868077964376 11.115305482751674 0 0 0
111 1 0.20951658743206653 3.094004300401046 12.718558666684613 0 0 0
66 1 4.945150257595683 4.658792338984364 11.11319772422958 0 0 0
104 1 3.3628540227033104 3.074207653557914 12.699523444932762 0 0 0
219 1 6.520805038662041 3.075879414993175 12.700009706016438 0 0 0
125 1 0.19631503747992018 6.252621156236015 12.694338900340647 1 0 0
201 1 1.774529378061173 7.827622939731027 11.114148003916807 0 0 0
123 1 4.944650476148542 7.824722926331168 11.114404685992422 0 0 0
157 1 3.3642447147975574 6.244381851018655 12.694740731218223 0 0 0
121 1 6.53265130776239 6.243086429808694 12.695276998412176 0 0 0
231 1 0.19507939245525746 9.420808033065406 12.702806463227237 0 0 0
233 1 3.3574921654458922 9.416513897437982 12.704835424336164 0 0 0
203 1 6.524061032484859 9.412568797567923 12.704058119283559 0 0 0
243 1 1.7709379654359247 10.990088186989931 11.119503103338824 0 0 0
207 1 3.3567333994536033 12.571306323572859 12.682270290830957 0 0 0
209 1 4.940865095961067 10.984961105332847 11.130421560919523 0 0 0
245 1 6.520963724616964 12.571397287769113 12.718964701500797 0 0 0
168 1 0.20000238984566568 15.729251953172726 12.710036123863068 0 -1 0
217 1 1.7712873811524112 14.153333460038994 11.121086011532608 0 0 0
79 1 3.357309320683739 15.723856265085491 12.709306873803273 0 -1 0
105 1 4.938211376174979 14.15204201597823 11.125757079072839 0 -1 0
244 1 6.5176310716741215 15.726355960545872 12.710645829683193 0 0 0
102 1 1.7789599558308582 1.4865822589376716 14.283094498742681 0 0 0
5 1 4.945363416858519 1.4847591925517412 14.280129767977714 0 0 -1
113 1 1.7938795059078116 4.666523555054917 14.287406124109047 0 0 0
114 1 4.949269894960392 4.657898971481409 14.278748784275932 0 0 0
122 1 1.7715280455738378 7.829563186870534 14.266567981750786 0 0 0
235 1 4.947560410879041 7.826947527194947 14.272617608866515 0 0 0
143 1 1.7910489486337262 11.012229745419106 14.29601763465634 0 0 -1
234 1 4.922531739664517 11.006087853887836 14.296837268709167 0 0 0
242 1 1.7933803126531545 14.132005345144348 14.300646175788625 0 0 0
27 1 4.923352133821417 14.131684195739822 14.302042310890393 0 0 0
241 1 0.19731820376556553 12.572497070318391 12.707401758458246 1 0 0
6 1 8.116788403530968 1.489760169429185 1.615231976606513 0 0 0
8 1 11.296400997087026 1.4961175243302869 1.6194721923685071 0 0 0
10 1 14.472209000354527 1.491280944714887 1.6228182677002536 0 0 0
16 1 8.118372986247484 4.65652507838008 1.6179205367811276 0 0 0
17 1 9.707060046530037 3.0783966911317635 0.04017176189002357 0 0 0
18 1 11.293231590655802 4.661583426993739 1.6236368095342122 0 0 0
228 1 12.9007333477821 3.0954979941900027 0.05541779704001 0 0 1
20 1 14.475542039615952 4.666392047108636 1.637497746633407 0 0 0
28 1 9.702857981289382 6.2450790389451845 0.03898013598960301 0 0 0
128 1 8.118309695953771 7.820547388286226 1.6108820701118303 0 0 0
229 1 12.877251035008674 6.250320311473319 0.04413989613391404 0 0 1
129 1 11.289859254244057 7.825239929499839 1.618331189470619 0 0 0
130 1 14.45642860041482 7.825683682688895 1.6163354587220191 0 0 0
29 1 9.702195612675757 9.408068356789064 0.03397024495762694 0 0 1
139 1 12.878744036188838 9.412757763695224 0.03667281869694679 0 0 0
136 1 8.109523415034388 10.984497220487889 1.6107779007524299 0 0 0
147 1 9.70546739220152 12.571080994991448 0.03567851456831915 0 0 0
137 1 11.289969447297006 10.989359295477373 1.6165291272121467 0 0 0
149 1 12.8766092744557 12.572701813514557 0.03634703826122154 0 0 0
140 1 14.465237132839345 10.991109540196131 1.6154528985103183 0 0 0
112 1 8.106493460038424 14.147803934092845 1.6134353476201715 0 0 0
109 1 9.707929211894184 15.73953648226257 0.03902552072227409 0 -1 1
148 1 11.291414986112425 14.154356568757436 1.6171580432670747 0 0 0
250 1 12.885462421929674 15.737316278856976 0.04093136947877874 0 0 1
150 1 14.470149980197084 14.154449425939433 1.6184011280805957 0 0 0
54 1 8.115188461567488 1.4944522856125704 4.774276513528735 0 0 0
44 1 11.290977820862329 1.490745467290548 4.772350719122151 0 0 0
103 1 14.469398078031045 1.489418329928167 4.781124049606163 -1 -1 0
42 1 9.704808906600924 3.075236842738215 3.1986074432348133 0 0 0
64 1 8.116822794828302 4.658703207590812 4.780871010277174 0 0 0
200 1 11.291339915690546 4.659226142888094 4.7830595826704645 0 0 0
36 1 12.881619088885923 3.076479934509417 3.2034030635967503 -1 0 0
65 1 14.467223262171556 4.658403469910207 4.785623542709759 0 0 0
88 1 9.703429218704803 6.240310884725991 3.2004805366514946 0 0 0
161 1 8.112858864481888 7.820609787256412 4.775716146433697 0 0 0
50 1 12.877046476709463 6.242667825565412 3.2049224813446466 0 0 0
154 1 11.290235929202474 7.822794541973767 4.783002999731444 0 0 0
155 1 14.463128310802709 7.82408697250842 4.782232199943224 0 0 0
55 1 9.708069084748331 9.400879512036735 3.1931351121382106 0 0 0
164 1 12.876537341514643 9.405920944483878 3.198452656505068 0 0 0
19 1 8.154644757207333 10.979561685110763 4.770318456020147 0 0 0
172 1 9.702191630481549 12.568537296825104 3.1929117627942127 0 0 0
162 1 11.301363680436648 10.98536555334178 4.778239600809613 0 0 0
138 1 12.88006358911657 12.571572562730521 3.197253136642089 0 0 0
165 1 14.464494959938232 10.987481573620206 4.777478197343896 0 0 0
32 1 9.699809620097525 15.73167559877828 3.1909355154059322 0 -1 0
171 1 8.088272817809715 14.12557217641618 4.743949937916857 0 0 0
224 1 12.88128036698978 15.73559283479915 3.1984733590450385 0 -1 0
30 1 11.296561951399937 14.152783001773768 4.775991002777094 0 0 0
197 1 14.46902112173118 14.151603922247874 4.7791336499339305 0 -1 0
53 1 11.286849523700255 1.4864366978978183 7.889235759517888 0 -1 0
59 1 9.704599395402866 3.0801272444368712 6.359663468672274 0 0 0
60 1 12.883585394912442 3.0783281491690433 6.355554278732852 0 0 0
181 1 9.70341229403108 6.242034216911251 6.36474968848726 0 0 0
43 1 12.878889840647947 6.242625127437 6.366351459838679 0 0 0
118 1 9.705022570524168 9.40097084767069 6.362337470366776 0 0 0
194 1 12.879308393798036 9.405100857154261 6.365106838648588 0 0 0
184 1 9.765509537105766 12.578258595160202 6.372348761271582 0 0 0
163 1 12.890360778686327 12.572082439130407 6.3659401589781925 0 0 0
69 1 9.680171193990367 15.7107030427477 6.314247935358041 0 -1 0
33 1 12.885457004087627 15.735326958594271 6.360314676106729 0 -1 0
120 1 10.297573172342453 0.5036678535684179 10.125616467862532 0 0 0
31 1 8.140148098016052 1.541301148215511 7.97058905161139 0 0 0
239 1 14.47290330693189 1.4939664766422103 7.948072511324768 0 0 0
81 1 9.729457571443442 3.1094602123333512 9.555801730650796 0 0 0
92 1 8.120590492258357 4.666151558506367 7.9507060508140865 0 0 0
94 1 12.893063136025477 3.087732065645505 9.490855255279735 0 0 0
74 1 11.294458026757962 4.663911136746059 7.947540515911713 0 0 0
206 1 14.473323781893061 4.66459917409522 7.943016821961462 0 0 0
99 1 9.70992579871257 6.245062687480391 9.536477238212207 0 0 0
175 1 8.112321707124169 7.820012459372485 7.942581330353153 0 0 0
100 1 12.884541153642559 6.246868865055021 9.534411159241172 0 0 0
189 1 11.29217826027313 7.8229538880241165 7.948954137134563 0 0 0
73 1 14.4659707291563 7.825035263421306 7.948901058796425 0 0 0
119 1 9.701995353346355 9.397612252420936 9.528716323164637 0 0 0
205 1 12.881285158289627 9.405508525620089 9.532201045080713 0 0 0
223 1 9.682107440319468 12.518491566854316 9.509195255192246 0 0 0
193 1 8.092988365361858 10.952333161253462 7.923822029021416 0 0 0
214 1 11.297837321374002 10.982478034433171 7.94814356962392 0 0 0
213 1 12.886254437467164 12.566158448731464 9.532143886124105 0 0 0
195 1 14.468188181075009 10.987817248902672 7.947717028997482 0 0 0
82 1 8.908034303308272 14.940803113955555 8.739478287329375 0 -1 0
199 1 11.342122358481049 14.178036145508916 7.973517029860087 0 0 0
84 1 12.914982894196314 15.762001241764002 9.558804188583052 0 -1 0
70 1 14.47577276971177 14.156359157618935 7.951899593439876 0 -1 0
107 1 8.053920173878238 1.4804685489853073 11.108178196443433 0 0 0
23 1 11.70916152290786 1.907553177441619 11.52948385526795 0 0 0
188 1 14.492159776356457 1.5194810332401822 11.146564114393502 0 0 0
91 1 8.116818168938677 4.662761441954804 11.115427682153909 0 0 0
106 1 9.661465512951779 3.084010059805785 12.706467104125828 0 0 0
93 1 11.321461836012066 4.678837142705893 11.143096469829084 0 0 0
95 1 13.1376592140098 3.328374658714583 12.95526226592366 0 0 0
96 1 14.484921964378668 4.675242193267972 11.106564179851194 -1 0 0
124 1 9.707284436069916 6.246171331742612 12.700356257156797 0 0 0
25 1 8.117123893310492 7.824629790538989 11.115421481857839 0 0 -1
183 1 12.901104744831276 6.262242114056317 12.717975319497352 0 0 1
204 1 11.297084547654585 7.826033628034303 11.11874902672561 0 0 0
89 1 14.472937841623244 7.8324890141392665 11.117403030339196 0 0 0
237 1 9.704319495808472 9.405314714843389 12.697946703865702 0 0 0
230 1 12.883464894064229 9.410604962379656 12.699243181629079 0 0 0
211 1 8.115687555643428 10.983150233544047 11.12169438981834 0 0 0
247 1 9.7034840441086 12.565469829459747 12.703942194516726 0 0 0
212 1 11.292115578462738 10.978712406629777 11.114109703119949 0 0 0
240 1 12.88563738106733 12.56171205348146 12.70181448879952 0 0 0
215 1 14.470510103949215 10.990588772219665 11.11587391261874 0 0 0
248 1 8.138781659881829 14.174804477127992 11.167603194487748 0 0 0
7 1 9.728344957066708 15.759802549761122 12.732007479698042 0 -1 -1
249 1 11.287232219890388 14.09393928542833 11.109413295732494 0 0 0
225 1 12.894227491428158 15.695490047663368 12.710061374040542 0 0 0
108 1 14.475126655124425 14.151441150212404 11.118887438332917 0 0 0
146 1 8.114993057532859 1.4915345043277843 14.285412955705686 0 1 -1
85 1 11.321245857089567 1.520783684586975 14.299980866829875 0 0 0
2 1 14.48776897411679 1.4804005522798136 14.298513694929085 0 0 0
153 1 8.112340311541447 4.663383076092527 14.284577944102923 0 0 0
117 1 11.28164728923151 4.674009348911276 14.2946646128629 0 0 0
21 1 14.595949393046336 4.78498034311092 14.406072610455057 -1 0 -1
202 1 8.117169827721968 7.825983518865559 14.278320449568815 0 0 0
173 1 11.293529546726102 7.830349737160332 14.282851078967424 0 0 0
226 1 14.477767011347579 7.846992887804341 14.28900321700604 -1 0 0
236 1 8.112289368634826 10.987015543715756 14.279446599332756 0 0 0
238 1 11.291796361671555 10.9887586536559 14.280026333005944 0 0 0
141 1 14.472761716665309 10.992216513336716 14.279459050398064 -1 0 -1
101 1 14.478265988997093 14.148713689677585 14.285027307163615 -1 -1 0
246 1 8.115507901820465 14.156289852621866 14.286826083063454 0 0 0
115 1 11.294491177501882 14.153062904345287 14.284604041152633 0 0 0

Velocities

11 0 0 0
4 0 0 0
116 0 0 0
110 0 0 0
14 0 0 0
13 0 0 0
15 0 0 0
12 0 0 0
126 0 0 0
132 0 0 0
127 0 0 0
135 0 0 0
131 0 0 0
133 0 0 0
158 0 0 0
46 0 0 0
49 0 0 0
134 0 0 0
145 0 0 0
142 0 0 0
1 0 0 0
83 0 0 0
3 0 0 0
144 0 0 0
52 0 0 0
58 0 0 0
37 0 0 0
38 0 0 0
39 0 0 0
185 0 0 0
40 0 0 0
180 0 0 0
151 0 0 0
47 0 0 0
152 0 0 0
48 0 0 0
156 0 0 0
22 0 0 0
160 0 0 0
166 0 0 0
176 0 0 0
170 0 0 0
232 0 0 0
45 0 0 0
26 0 0 0
167 0 0 0
169 0 0 0
192 0 0 0
159 0 0 0
56 0 0 0
57 0 0 0
41 0 0 0
75 0 0 0
62 0 0 0
63 0 0 0
61 0 0 0
177 0 0 0
210 0 0 0
174 0 0 0
182 0 0 0
9 0 0 0
78 0 0 0
196 0 0 0
198 0 0 0
34 0 0 0
51 0 0 0
227 0 0 0
86 0 0 0
71 0 0 0
35 0 0 0
72 0 0 0
90 0 0 0
222 0 0 0
186 0 0 0
187 0 0 0
178 0 0 0
98 0 0 0
190 0 0 0
208 0 0 0
179 0 0 0
216 0 0 0
191 0 0 0
218 0 0 0
220 0 0 0
221 0 0 0
97 0 0 0
24 0 0 0
76 0 0 0
80 0 0 0
68 0 0 0
77 0 0 0
67 0 0 0
87 0 0 0
111 0 0 0
66 0 0 0
104 0 0 0
219 0 0 0
125 0 0 0
201 0 0 0
123 0 0 0
157 0 0 0
121 0 0 0
231 0 0 0
233 0 0 0
203 0 0 0
243 0 0 0
207 0 0 0
209 0 0 0
245 0 0 0
168 0 0 0
217 0 0 0
79 0 0 0
105 0 0 0
244 0 0 0
102 0 0 0
5 0 0 0
113 0 0 0
114 0 0 0
122 0 0 0
235 0 0 0
143 0 0 0
234 0 0 0
242 0 0 0
27 0 0 0
241 0 0 0
6 0 0 0
8 0 0 0
10 0 0 0
16 0 0 0
17 0 0 0
18 0 0 0
228 0 0 0
20 0 0 0
28 0 0 0
128 0 0 0
229 0 0 0
129 0 0 0
130 0 0 0
29 0 0 0
139 0 0 0
136 0 0 0
147 0 0 0
137 0 0 0
149 0 0 0
140 0 0 0
112 0 0 0
109 0 0 0
148 0 0 0
250 0 0 0
150 0 0 0
54 0 0 0
44 0 0 0
103 0 0 0
42 0 0 0
64 0 0 0
200 0 0 0
36 0 0 0
65 0 0 0
88 0 0 0
161 0 0 0
50 0 0 0
154 0 0 0
155 0 0 0
55 0 0 0
164 0 0 0
19 0 0 0
172 0 0 0
162 0 0 0
138 0 0 0
165 0 0 0
32 0 0 0
171 0 0 0
224 0 0 0
30 0 0 0
197 0 0 0
53 0 0 0
59 0 0 0
60 0 0 0
181 0 0 0
43 0 0 0
118 0 0 0
194 0 0 0
184 0 0 0
163 0 0 0
69 0 0 0
33 0 0 0
120 0 0 0
31 0 0 0
239 0 0 0
81 0 0 0
92 0 0 0
94 0 0 0
74 0 0 0
206 0 0 0
99 0 0 0
175 0 0 0
100 0 0 0
189 0 0 0
73 0 0 0
119 0 0 0
205 0 0 0
223 0 0 0
193 0 0 0
214 0 0 0
213 0 0 0
195 0 0 0
82 0 0 0
199 0 0 0
84 0 0 0
70 0 0 0
107 0 0 0
23 0 0 0
188 0 0 0
91 0 0 0
106 0 0 0
93 0 0 0
95 0 0 0
96 0 0 0
124 0 0 0
25 0 0 0
183 0 0 0
204 0 0 0
89 0 0 0
237 0 0 0
230 0 0 0
211 0 0 0
247 0 0 0
212 0 0 0
240 0 0 0
215 0 0 0
248 0 0 0
7 0 0 0
249 0 0 0
225 0 0 0
108 0 0 0
146 0 0 0
85 0 0 0
2 0 0 0
153 0 0 0
117 0 0 0
21 0 0 0
202 0 0 0
173 0 0 0
226 0 0 0
236 0 0 0
238 0 0 0
141 0 0 0
101 0 0 0
246 0 0 0
115 0 0 0
