LAMMPS data file via write_data, version 22 Jul 2025, timestep = 694, units = metal

250 atoms
1 atom types

-0.020254626591107768 15.846232626591092 xlo xhi
0 15.825978000000001 ylo yhi
0 15.825978000000001 zlo zhi

Masses

1 183.841

Atoms # atomic

2 1 1.5649417272114476 1.5996230402027798 1.609176868531737 0 0 0
4 1 4.767483059967603 1.623052483899803 1.6374847949342026 0 0 0
59 1 9.748139365618075 3.4402937803675253 6.605251533352865 0 0 0
64 1 9.516311743895608 6.375346058528898 6.372436656443082 0 0 0
6 1 7.912020813352937 1.596624794208869 1.5453905973184738 0 0 0
17 1 9.502855359333465 3.188940664887275 0.014150856933548396 0 0 0
8 1 11.091859463694394 1.6033632860527904 1.6066953726747293 0 0 0
9 1 12.673155348768516 0.017019903065920782 0.024069907678733658 0 0 0
10 1 14.260203038257172 1.6002133263508047 1.6079895269979632 0 0 0
1 1 15.840626449436684 0.01659985735298779 0.023620055084555745 -1 0 0
12 1 1.5673766976341377 4.768173706332464 1.605964417603716 0 0 0
14 1 4.742036402002988 4.774131795210706 1.6100707018029332 0 0 0
3 1 3.156419295822017 0.06536538732503652 0.030687566925083985 0 0 0
16 1 7.91392608211081 4.7755051667704524 1.6057834386282295 0 0 0
15 1 6.323360955267288 3.1856751919857516 0.02245932343993954 0 0 0
60 1 12.695659298179297 3.206025300999452 6.373611892543248 0 0 0
19 1 12.674249995947383 3.1830390757537024 0.025494412114720442 0 0 0
18 1 11.091845851534377 4.774566535513008 1.6014774388552018 0 0 0
20 1 14.261952340813357 4.766496097555298 1.607044756762869 0 0 0
11 1 -0.019743101241074257 3.181944362108745 0.025537319474329932 0 0 0
127 1 3.149285129769289 6.347941378113353 0.020505638260323266 0 0 0
23 1 6.3228611833208275 6.351275988310453 0.025423843230243784 0 0 0
24 1 9.49536934527851 6.353309244427566 0.02677739678906889 0 0 0
25 1 12.671316085070975 6.348870407084063 0.025523526962769362 0 0 0
21 1 15.844884471763134 6.345011487694852 0.023963950711214467 -1 0 0
27 1 1.5596016331681566 1.5972083914059236 4.769131051762511 0 0 0
29 1 4.676719207958963 1.6020700926981866 4.773087833599956 0 0 0
63 1 6.327265705575646 6.365064588232937 6.356139975252848 0 0 0
61 1 -0.011595562004972991 6.354646386570513 6.347862174089089 0 0 0
31 1 8.322850073147505 2.0119015749836633 5.182589808507425 0 0 0
159 1 6.905556901035177 0.6183958952079148 3.7717484375533026 0 0 0
32 1 9.52752534094813 0.044844351107762186 3.2165794812201094 0 0 0
33 1 11.10606575731477 1.631334947187237 4.800712061026442 0 0 0
34 1 12.676181821101132 0.02343148009083666 3.1945924693026684 0 0 0
26 1 15.841218334020308 0.013378234268994382 3.1880566870898805 -1 0 0
35 1 14.262944644550052 1.6055728044425317 4.7751846356743215 0 0 0
37 1 1.5696030128182492 4.770941720668406 4.768670170395217 0 0 0
38 1 3.150598946196536 3.186494810523734 3.1870103726811903 0 0 0
39 1 4.737933301851947 4.775335861237581 4.772882450355859 0 0 0
40 1 6.349976271135759 3.2244563133909434 3.213031176732185 0 0 0
41 1 7.939364289010272 4.793005778923458 4.800166739242286 0 0 0
42 1 9.511238579839466 3.1992616956684614 3.150031397255559 0 0 0
43 1 11.103406994545663 4.786847843891126 4.7627912334066975 0 0 0
44 1 12.678963192763554 3.1891845279576647 3.1914188462886113 0 0 0
36 1 -0.01865035909032699 3.1846372988965377 3.1888649942956877 0 0 0
45 1 14.26801573796218 4.772450928138631 4.771004663766375 0 0 0
47 1 3.1537364378375137 6.357103861765245 3.1860420437087535 0 0 0
48 1 6.330141838415839 6.361794729111993 3.1925818110511868 0 0 0
49 1 9.500750220758396 6.3590254657816505 3.1921980464708315 0 0 0
50 1 12.677560188131382 6.35561296041716 3.186396549784487 0 0 0
46 1 -0.015565106677788751 6.351994728339952 3.1874325770611187 0 0 0
62 1 3.1545427588124104 6.360365955137818 6.35047617671682 0 0 0
65 1 12.683098244938035 6.361572760650364 6.349524188025857 0 0 0
56 1 -0.014788861097911008 3.1867637555858135 6.35419081788504 0 0 0
55 1 12.676281959055654 0.02078592076486954 6.356166524824523 0 0 0
51 1 -0.019918763421765462 0.0172823693975061 6.35297807491056 0 0 0
57 1 3.141634360419371 3.1913615712702756 6.358691142779479 0 0 0
58 1 6.284949954343901 3.19892811932664 6.365429457300354 0 0 0
13 1 3.156247375079129 3.1878714809635946 0.02823367821785868 0 0 0
7 1 9.50454064508984 0.017255777147008648 0.019114104916666062 0 0 0
53 1 6.352668775931966 0.04228062216377917 6.388838189098062 0 0 0
52 1 3.144127053813044 0.01770153314271975 6.3648290502364695 0 0 0
66 1 1.566168615054482 1.6008818672009857 7.937744602175734 0 0 0
67 1 4.738325677398964 1.6033634710464588 7.942781005349805 0 0 0
78 1 3.153083139009594 0.015963853872300215 9.518241306214975 0 0 0
80 1 6.328795314185071 0.021984585729037293 9.520945923422605 0 0 0
68 1 7.939920320011129 1.6301572703114575 7.956305173161634 0 0 0
82 1 9.499133600023132 0.0195613818107953 9.521031506077016 0 0 0
69 1 11.100569339295507 1.5933941563289105 7.9511160338026565 0 0 0
84 1 12.674799962728674 0.01702576045501445 9.521208166521333 0 0 0
76 1 -0.018719354214529405 0.01611907189081902 9.514886092005446 0 0 0
70 1 14.265659126502612 1.602437500791531 7.938802628952305 0 0 0
71 1 1.5706310574604427 4.771275552222575 7.93531538697119 0 0 0
72 1 4.733486661384382 4.777772247371153 7.940377908543892 0 0 0
88 1 3.154246862594429 3.184055953771733 9.519746137079084 0 0 0
73 1 7.899916213586466 4.787864784247903 7.951926855159935 0 0 0
90 1 6.327193979794544 3.189209805289349 9.523978350603702 0 0 0
92 1 9.517607153025134 3.205547391405822 9.538467523947844 0 0 0
74 1 11.210005660873758 4.893407222513329 8.059079573489015 0 0 0
94 1 12.68137155337343 3.1821827825319824 9.527301371254035 0 0 0
86 1 -0.014911978945360598 3.182359084953278 9.51943992009496 0 0 0
75 1 14.282109948720448 4.7772415076637085 7.943431187524429 0 0 0
97 1 3.1557301396158897 6.352137989691637 9.513270612598536 0 0 0
98 1 6.321285620154011 6.357948271156185 9.519164294846906 0 0 0
99 1 9.492892100095787 6.361713079280567 9.524247278423008 0 0 0
100 1 12.705791767345126 6.38487524352269 9.551560860239473 0 0 0
96 1 -0.0070276302793700375 6.352162500761825 9.514398046005276 0 0 0
77 1 1.5670173280117938 1.5989972559997343 11.099963352747036 0 0 0
79 1 4.739418034677543 1.600027615949605 11.101768123128858 0 0 0
103 1 3.1500891597520195 0.01617968350413152 12.679254055999337 0 0 0
105 1 6.319773111801678 0.012563746452736228 12.67961985239448 0 0 0
81 1 7.914494168668964 1.6046928904698898 11.104094763086735 0 0 0
107 1 9.497131866574838 0.017884527849593084 12.683601525050362 0 0 0
83 1 11.087301478659674 1.6020867391604088 11.106759930917871 0 0 0
109 1 12.669896265478 0.017470599442526734 12.684404977563442 0 0 0
101 1 15.838371772216316 0.023379762243207692 12.676637697034037 -1 0 0
85 1 14.259759583194048 1.5990854499966463 11.101361195535207 0 0 0
87 1 1.5687967403312524 4.7620100314515215 11.098843869465327 0 0 0
89 1 4.739394483069243 4.766493701594098 11.10161836286028 0 0 0
113 1 3.1533011472837242 3.181848882573938 12.684026250596037 0 0 0
115 1 6.3248021670355135 3.1834102858626427 12.684841932792958 0 0 0
91 1 7.911675877328738 4.771288785198021 11.10709250753117 0 0 0
117 1 9.49919467300208 3.185528228133542 12.688283748737431 0 0 0
93 1 11.092513541620592 4.776054892985211 11.120845267888347 0 0 0
119 1 12.673225310994441 3.1815921292241827 12.689160248194293 0 0 0
111 1 15.845363408437585 3.1799453460976097 12.683494540731099 -1 0 0
95 1 14.259764884843369 4.755975486750791 11.100652736553931 0 0 0
122 1 3.1512372281192325 6.343262116212478 12.679197464196047 0 0 0
123 1 6.323692642063176 6.348450484175975 12.684229441140966 0 0 0
124 1 9.494642408126087 6.35135613078332 12.688970460890879 0 0 0
125 1 12.67068483724308 6.348779152790351 12.694364235030088 0 0 0
121 1 15.836924329268243 6.328804440458409 12.673975949822857 -1 0 0
102 1 1.5627949304466708 1.608259387779966 14.26468761568116 0 0 0
104 1 4.7383473487694525 1.6007419458072938 14.265460561543547 0 0 0
106 1 7.908836816907382 1.597630289137988 14.259967460701308 0 0 0
108 1 11.086089479214252 1.600348811584672 14.26761913429925 0 0 0
110 1 14.258057502870965 1.5989984329226798 14.268190072607128 0 0 0
112 1 1.5651637720034002 4.761878651565419 14.26579811069504 0 0 0
114 1 4.738160035871466 4.76592243088021 14.267043871141736 0 0 0
116 1 7.9098246559668315 4.767490077714335 14.268628643660465 0 0 0
118 1 11.085413058449564 4.768104429021315 14.270605053107941 0 0 0
120 1 14.258461943566687 4.761410243125181 14.269610801277118 0 0 0
205 1 14.219173801586475 7.89275067156207 11.059642684517119 0 0 0
226 1 1.5443910493647783 7.911448660383218 14.245163805330286 0 0 0
126 1 1.571271430474721 7.937098246518894 1.6104537415468745 0 0 0
158 1 4.733517611070157 7.938869669746256 1.6087640130368175 0 0 0
181 1 -0.018133608962489087 12.681212907648497 6.3527174759653935 0 0 0
135 1 6.3277583323092 9.507284549333006 0.02420125644163801 0 0 0
128 1 7.903861107207329 7.940190500749437 1.6140784602395783 0 0 0
137 1 9.495385218376398 9.514738432666421 0.02575606267917721 0 0 0
129 1 11.083100468425172 7.934215101952967 1.606869588965431 0 0 0
139 1 12.66577541424213 9.511356587754774 0.022638639029094566 0 0 0
130 1 14.257136823280494 7.928783707233169 1.6080034004889683 0 0 0
131 1 15.831063731605477 9.498579944216402 0.037152985015903514 -1 0 0
132 1 1.5805197278175167 11.09907471983166 1.6576893806511679 0 0 0
134 1 4.707885949490195 11.055697718656308 1.544263119103143 0 0 0
54 1 9.5056845028443 15.799319721448477 6.362337881170751 0 -1 0
136 1 7.904654744275768 11.091772215049485 1.6155187193330154 0 0 0
145 1 6.368759118403304 12.69679918223427 0.05521445810363464 0 0 0
28 1 3.1198610311611312 15.805968631957851 3.168582669932836 0 -1 0
138 1 11.084487848635932 11.096357140515815 1.6066218106632382 0 0 0
149 1 12.670272868647316 12.673914079203449 0.019034503664698152 0 0 0
140 1 14.259562239374167 11.09427184992221 1.6044154744593766 0 0 0
152 1 4.7399772445176795 7.918367607276822 4.768819298857984 0 0 0
142 1 1.5303523757909059 14.229642367593557 1.592261374693069 0 0 0
144 1 4.10469655200839 13.646281543572393 1.0460013826988959 0 0 0
146 1 7.976105667234617 14.274898377037099 1.6338167034419537 0 0 0
148 1 11.094147776140407 14.264116907107162 1.6103896860048492 0 0 0
150 1 14.256670234681103 14.255085445312892 1.601900454334423 0 0 0
151 1 1.5790598056043963 7.943531608082376 4.767080563109011 0 0 0
22 1 3.174121724543449 9.530822021658484 3.2069596059853986 0 0 0
30 1 5.557297774968064 14.987590308247324 2.4076095465486778 0 -1 0
160 1 6.301644596046778 9.529895209680594 3.202208712049193 0 0 0
153 1 7.905030134904015 7.94804685131741 4.774445548193878 0 0 0
162 1 9.494234255749877 9.513714143436376 3.187662662174053 0 0 0
164 1 12.672564806334309 9.516325079029851 3.186117094404401 0 0 0
154 1 11.087461956129935 7.9412846783438935 4.7711761125638 0 0 0
156 1 -0.017228773188008292 9.51094439445066 3.1898473839896893 0 0 0
155 1 14.264031769265955 7.936278664816896 4.766891631921062 0 0 0
157 1 1.5392741747299177 11.090751818425726 4.781052749249914 0 0 0
168 1 3.2113482238769895 12.644871220307945 3.317645040807323 0 0 0
170 1 6.25151417387002 12.553955830958364 3.2093378793930305 0 0 0
161 1 7.9330352015519505 11.08490673395645 4.773480503234065 0 0 0
172 1 9.4947517159357 12.670943700777537 3.1900997706689447 0 0 0
163 1 11.087902815312052 11.098220253322266 4.769768369597969 0 0 0
174 1 12.673299659603092 12.67975843996402 3.1871603710648255 0 0 0
165 1 14.256615353550798 11.0986857733452 4.768180632909414 0 0 0
166 1 -0.014431568566259278 12.676780356838599 3.1913186847278925 0 0 0
167 1 1.5719647263099101 14.251823524856981 4.775878096588344 0 0 0
169 1 4.761557731951238 14.315888164628417 4.8390233887033025 0 0 0
171 1 7.876242986062432 14.190308680145113 4.748981506087727 0 0 0
173 1 11.084131288145782 14.260193704096302 4.770734111306137 0 0 0
175 1 14.260084673398579 14.261630072335445 4.770077619053819 0 0 0
177 1 3.174553189880259 9.539989980517719 6.325034897214407 0 0 0
178 1 6.303668687251397 9.540710795685735 6.329022918026672 0 0 0
179 1 9.494896359936849 9.51917405653818 6.355508327955597 0 0 0
180 1 12.67343997326049 9.52064577426073 6.349940748002051 0 0 0
176 1 -0.016308483744870907 9.513717695870334 6.348793418304705 0 0 0
182 1 3.1707442936871724 12.661834317450106 6.341820367871939 0 0 0
183 1 6.301974790688595 12.654194391633137 6.341242834504968 0 0 0
184 1 9.491914611686619 12.673916164442648 6.354077614057135 0 0 0
185 1 12.67125869996237 12.682501517481791 6.351030064491933 0 0 0
147 1 9.50704295252747 12.677201719943112 0.025201509641776733 0 0 0
187 1 4.739200360997714 7.947863708210109 7.920257729320934 0 0 0
208 1 3.1508060551920423 9.5117794287731 9.50260550916948 0 0 0
190 1 14.261117929656624 7.93367425320271 7.922423121505044 0 0 0
210 1 6.323601053375053 9.516877815387405 9.508731852715805 0 0 0
188 1 7.903349131819023 7.9496675203027145 7.929273878799144 0 0 0
212 1 9.492246183500512 9.522341836387847 9.51678455042781 0 0 0
214 1 12.669486861296823 9.526332111064754 9.51524987851162 0 0 0
189 1 11.091538696861145 7.954335683919096 7.943066517000703 0 0 0
206 1 15.837968699145724 9.506689238599975 9.492831413367048 -1 0 0
5 1 6.29754234832576 15.812653904251034 15.813281380363838 0 -1 -1
250 1 14.252555634272941 14.258105424513074 14.262279079427968 0 0 0
218 1 3.1470536756451475 12.675500465972986 9.508868631500883 0 0 0
192 1 4.737253186230531 11.09725125204096 7.951903505032945 0 0 0
220 1 6.3231518565837135 12.680446851065165 9.51319082587346 0 0 0
143 1 2.7422098175310046 12.256683964421795 15.40882333532216 0 0 -1
222 1 9.493138486928126 12.681012019559454 9.516013182381185 0 0 0
194 1 11.081669816985015 11.102365261629 7.933373163602762 0 0 0
224 1 12.668841638502675 12.681739634020351 9.514819651245377 0 0 0
216 1 15.84258754680363 12.677175483074443 9.507934917258932 -1 0 0
195 1 14.25795886696646 11.10005232356801 7.92742203482495 0 0 0
196 1 1.5712521670543709 14.254217127981319 7.928965915686876 0 0 0
197 1 4.741162873780725 14.256642504128324 7.9346519089868925 0 0 0
198 1 7.903832564336451 14.253697478541905 7.930758228154398 0 0 0
199 1 11.087952684382381 14.257022771247524 7.940132706382676 0 0 0
200 1 14.259900949783406 14.262927839668084 7.933301255512625 0 0 0
201 1 1.5689716731478032 7.9232595479919325 11.087540280451776 0 0 0
233 1 3.162088757687758 9.497843820797527 12.6648080193853 0 0 0
202 1 4.7401663605506075 7.929539692710866 11.092484704978956 0 0 0
235 1 6.332307446723442 9.50640914119083 12.674255541013968 0 0 0
203 1 7.908578946472373 7.934057992611726 11.098872972607472 0 0 0
237 1 9.49205565932208 9.515207483233992 12.683166232202604 0 0 0
239 1 12.648705535126387 9.505014287401384 12.673172280659156 0 0 0
204 1 11.071303294198723 7.932955916192271 11.09989954739175 0 0 0
231 1 15.712998339618151 9.382206974403081 12.548674397783802 -1 0 0
133 1 3.1210758978410973 9.490403813653103 15.820692157501 0 0 -1
207 1 1.5449238139367247 11.075205330282124 11.075054125126504 0 0 0
209 1 4.736310147670575 11.092770924014731 11.093695177601795 0 0 0
243 1 3.122693167606577 12.649444352872461 12.65784581581209 0 0 0
245 1 6.324753733420598 12.679035813360818 12.681423236744866 0 0 0
211 1 7.9073930914529384 11.099276695628355 11.097680127513945 0 0 0
247 1 9.495208924782565 12.680154769733285 12.682504237640874 0 0 0
213 1 11.077052408896988 11.099984669699467 11.097597117937964 0 0 0
249 1 12.663756158746542 12.678009065937792 12.678631214656232 0 0 0
241 1 15.826424814317011 12.688243096236986 12.663075662365754 -1 0 0
215 1 14.247149714503436 11.099217643822005 11.088171336663905 0 0 0
217 1 1.560828461520277 14.258601253688528 11.092741092978269 0 0 0
219 1 4.733012106151377 14.255278160291136 11.096533685850822 0 0 0
221 1 7.909394270985479 14.262478946529601 11.099243449209208 0 0 0
223 1 11.081898087167838 14.262768771563696 11.100664722182328 0 0 0
225 1 14.253247558266098 14.26377600903515 11.094694148566814 0 0 0
193 1 7.8994339295989855 11.098865474280107 7.925818921700717 0 0 0
227 1 4.736260310544165 7.925950933693613 14.262528339177713 0 0 0
228 1 7.909431519228738 7.931170218461199 14.268418396432734 0 0 0
229 1 11.078605280105661 7.930938944744605 14.269099807014019 0 0 0
230 1 14.249219989790657 7.922640973643294 14.26888888811253 0 0 0
232 1 1.299565827799898 10.833698895548753 14.00367731373224 0 0 0
234 1 4.789145476278574 11.079304407535687 14.247414543486824 0 0 0
236 1 7.916396300584112 11.096964364409752 14.268541477683067 0 0 0
238 1 11.079773004615184 11.094585047520585 14.26417037932002 0 0 0
240 1 14.236830999482894 11.074855708003167 14.244475038289524 0 0 0
242 1 1.5492436349496843 14.301925950974317 14.254134999734104 0 0 0
244 1 4.708619284373074 14.23004316690064 14.24462540739231 0 0 0
246 1 7.912652434747367 14.259483608548951 14.266151908783867 0 0 0
248 1 11.084814908771058 14.260581079151219 14.26594588391682 0 0 0
186 1 1.5773405870980344 7.941151784350028 7.918950964919136 0 0 0
141 1 15.828660443248705 12.64755610428231 15.820065090220899 -1 0 -1
191 1 1.5732228466878884 11.095003163941184 7.919291517785034 0 0 0

Velocities

2 0 0 0
4 0 0 0
59 0 0 0
64 0 0 0
6 0 0 0
17 0 0 0
8 0 0 0
9 0 0 0
10 0 0 0
1 0 0 0
12 0 0 0
14 0 0 0
3 0 0 0
16 0 0 0
15 0 0 0
60 0 0 0
19 0 0 0
18 0 0 0
20 0 0 0
11 0 0 0
127 0 0 0
23 0 0 0
24 0 0 0
25 0 0 0
21 0 0 0
27 0 0 0
29 0 0 0
63 0 0 0
61 0 0 0
31 0 0 0
159 0 0 0
32 0 0 0
33 0 0 0
34 0 0 0
26 0 0 0
35 0 0 0
37 0 0 0
38 0 0 0
39 0 0 0
40 0 0 0
41 0 0 0
42 0 0 0
43 0 0 0
44 0 0 0
36 0 0 0
45 0 0 0
47 0 0 0
48 0 0 0
49 0 0 0
50 0 0 0
46 0 0 0
62 0 0 0
65 0 0 0
56 0 0 0
55 0 0 0
51 0 0 0
57 0 0 0
58 0 0 0
13 0 0 0
7 0 0 0
53 0 0 0
52 0 0 0
66 0 0 0
67 0 0 0
78 0 0 0
80 0 0 0
68 0 0 0
82 0 0 0
69 0 0 0
84 0 0 0
76 0 0 0
70 0 0 0
71 0 0 0
72 0 0 0
88 0 0 0
73 0 0 0
90 0 0 0
92 0 0 0
74 0 0 0
94 0 0 0
86 0 0 0
75 0 0 0
97 0 0 0
98 0 0 0
99 0 0 0
100 0 0 0
96 0 0 0
77 0 0 0
79 0 0 0
103 0 0 0
105 0 0 0
81 0 0 0
107 0 0 0
83 0 0 0
109 0 0 0
101 0 0 0
85 0 0 0
87 0 0 0
89 0 0 0
113 0 0 0
115 0 0 0
91 0 0 0
117 0 0 0
93 0 0 0
119 0 0 0
111 0 0 0
95 0 0 0
122 0 0 0
123 0 0 0
124 0 0 0
125 0 0 0
121 0 0 0
102 0 0 0
104 0 0 0
106 0 0 0
108 0 0 0
110 0 0 0
112 0 0 0
114 0 0 0
116 0 0 0
118 0 0 0
120 0 0 0
205 0 0 0
226 0 0 0
126 0 0 0
158 0 0 0
181 0 0 0
135 0 0 0
128 0 0 0
137 0 0 0
129 0 0 0
139 0 0 0
130 0 0 0
131 0 0 0
132 0 0 0
134 0 0 0
54 0 0 0
136 0 0 0
145 0 0 0
28 0 0 0
138 0 0 0
149 0 0 0
140 0 0 0
152 0 0 0
142 0 0 0
144 0 0 0
146 0 0 0
148 0 0 0
150 0 0 0
151 0 0 0
22 0 0 0
30 0 0 0
160 0 0 0
153 0 0 0
162 0 0 0
164 0 0 0
154 0 0 0
156 0 0 0
155 0 0 0
157 0 0 0
168 0 0 0
170 0 0 0
161 0 0 0
172 0 0 0
163 0 0 0
174 0 0 0
165 0 0 0
166 0 0 0
167 0 0 0
169 0 0 0
171 0 0 0
173 0 0 0
175 0 0 0
177 0 0 0
178 0 0 0
179 0 0 0
180 0 0 0
176 0 0 0
182 0 0 0
183 0 0 0
184 0 0 0
185 0 0 0
147 0 0 0
187 0 0 0
208 0 0 0
190 0 0 0
210 0 0 0
188 0 0 0
212 0 0 0
214 0 0 0
189 0 0 0
206 0 0 0
5 0 0 0
250 0 0 0
218 0 0 0
192 0 0 0
220 0 0 0
143 0 0 0
222 0 0 0
194 0 0 0
224 0 0 0
216 0 0 0
195 0 0 0
196 0 0 0
197 0 0 0
198 0 0 0
199 0 0 0
200 0 0 0
201 0 0 0
233 0 0 0
202 0 0 0
235 0 0 0
203 0 0 0
237 0 0 0
239 0 0 0
204 0 0 0
231 0 0 0
133 0 0 0
207 0 0 0
209 0 0 0
243 0 0 0
245 0 0 0
211 0 0 0
247 0 0 0
213 0 0 0
249 0 0 0
241 0 0 0
215 0 0 0
217 0 0 0
219 0 0 0
221 0 0 0
223 0 0 0
225 0 0 0
193 0 0 0
227 0 0 0
228 0 0 0
229 0 0 0
230 0 0 0
232 0 0 0
234 0 0 0
236 0 0 0
238 0 0 0
240 0 0 0
242 0 0 0
244 0 0 0
246 0 0 0
248 0 0 0
186 0 0 0
141 0 0 0
191 0 0 0
