LAMMPS data file via write_data, version 22 Jul 2025, timestep = 41399, units = metal

250 atoms
1 atom types

-0.0210092023904249 15.846987202390455 xlo xhi
0 15.825978000000001 ylo yhi
0 15.825978000000001 zlo zhi

Masses

1 183.841

Atoms # atomic

11 1 1.724164537233341 1.459533530355543 1.5152824216351077 0 0 0
4 1 4.92778789875587 1.4357416999720374 1.5553361794795229 0 0 0
180 1 1.7300290759890358 4.623320929365359 1.518029273973766 0 0 0
14 1 4.9038631627019 4.628393191746827 1.516698072589206 0 0 0
131 1 1.731054111886548 7.789476059410396 1.5078297130635276 0 0 0
132 1 4.904447740218041 7.789463978036663 1.5100290033660786 0 0 0
207 1 1.731163871835577 10.953860595681768 1.5084407295936586 0 0 0
134 1 4.9046386895567196 10.950296950319503 1.5128140292732684 0 0 0
46 1 1.7195263706997135 14.120038971755395 1.5104913657878978 -1 0 0
83 1 4.848702714014371 14.118542383724948 1.5138587590526074 0 0 0
52 1 1.731276768648282 1.4603013350112246 4.677200089081609 0 0 0
185 1 4.918531060014349 1.4547027676478015 4.693498900142557 0 1 0
37 1 1.7277185170593428 4.626740117572429 4.672230166805602 0 0 0
38 1 0.1412017473953675 3.0411745592364126 3.092617650525085 0 0 0
116 1 3.3207028616915695 3.0382192744296743 3.104266370333294 0 0 0
152 1 4.910510419783422 4.615734974377706 4.6842065157420585 0 0 0
40 1 6.490924830697495 3.043424855894971 3.104719311608414 0 0 0
126 1 0.14140000339344533 6.206739856201078 3.087619293418518 0 0 0
157 1 1.730605034813854 7.79123704467271 4.668807610501457 1 0 0
47 1 3.318558631608274 6.205238740975928 3.094144575936439 0 0 0
212 1 4.90384486710823 7.786399894611287 4.674074880266154 0 0 0
48 1 6.490926258808919 6.203762028902725 3.0956445989537964 0 0 0
156 1 0.14684565691289775 9.371619533287056 3.087724018368473 0 0 0
22 1 3.3183646970498395 9.370805686661933 3.0911951272733074 0 0 0
160 1 6.492461244389144 9.366462058804983 3.096867832418412 0 0 0
166 1 0.14692099098652264 12.536844069688293 3.0937946737156325 0 0 0
176 1 1.7331378432956899 10.95548182507184 4.674838117002381 0 0 0
170 1 4.900231768260837 10.95096920550479 4.681203220213184 0 0 0
232 1 3.3103137514535166 12.534580489936708 3.0995190857064596 0 0 0
45 1 6.463686668888347 12.524686525872008 3.1113722707885567 0 0 0
26 1 0.14219416742789887 15.703451856898443 3.094013680290512 0 -1 0
167 1 1.7324998969620453 14.122254914198027 4.676671737678462 0 0 0
169 1 3.315507080215359 15.703485343408842 3.100143306456933 0 0 0
192 1 4.912223959968759 14.126249864622844 4.689569229329427 0 0 0
159 1 6.518029705308235 15.674645540296929 3.1265328458489674 0 -1 0
51 1 1.7247759747933884 1.4617537200425352 7.834472080356132 0 0 0
227 1 4.878363875626653 1.4648686992897038 7.833540765634887 0 0 0
70 1 1.7058872812342958 4.649722341818163 7.821293353850458 0 -1 0
71 1 0.13805129441602315 3.0447831382147457 6.250761005570986 0 0 0
57 1 3.316694680575679 3.0473398787984474 6.254507641871328 0 0 0
72 1 4.9135714967958535 4.6158525157020796 7.833312736371204 0 0 0
41 1 6.50861709668596 3.0201811222848494 6.27886310676333 0 0 0
75 1 0.12709971203187226 6.220714259462653 6.235533566793966 1 0 0
186 1 1.7328488931118804 7.800571199244785 7.827268386739598 0 0 0
62 1 3.3163701900944926 6.208356425673676 6.252438948338282 0 0 0
210 1 4.908306848455507 7.792905975507704 7.8329164720024655 0 0 0
63 1 6.488526853605476 6.199041934115024 6.255621037469296 0 0 0
61 1 0.14879945296546376 9.376830770644524 6.252141380657417 0 0 0
177 1 3.3184276858165727 9.374302925829554 6.254886602110045 0 0 0
19 1 6.488158244058436 9.370030388369596 6.258751706767452 0 0 0
174 1 0.14684749447615583 12.542805029099876 6.25750720106164 1 0 0
191 1 1.73045716975549 10.961499247772233 7.836408093477104 0 0 0
182 1 3.3199589684240243 12.541248249324122 6.2593378934096275 0 0 0
121 1 4.90430527643253 10.958259422738447 7.840048144012365 0 0 0
9 1 6.491890801948985 12.540224369798 6.263168896821803 0 -1 0
78 1 0.1437892064446105 15.704643923564584 6.256032300219761 1 -1 0
97 1 1.7325635362502645 14.123390134912531 7.838121556165365 0 0 0
196 1 3.3225791469905337 15.703852755159463 6.2573794054247545 0 0 0
80 1 4.914403551179056 14.131146540290246 7.837810036704789 0 -1 0
34 1 6.514594746574826 15.719694842476502 6.28362345163581 0 -1 0
144 1 6.9931106700068995 15.199587344693681 0.43086213394836387 0 0 0
86 1 0.12547432970428324 3.0206910730432286 9.405229393140742 0 0 0
67 1 3.2959112832719266 3.07014398918558 9.395446393941228 0 0 0
90 1 6.515396847041541 3.021298249303559 9.392270725121186 0 0 0
3 1 3.2580425349962088 15.722168658485725 15.732261370576822 0 -1 -1
178 1 3.349950364165141 6.218413546546844 9.404854111159295 0 0 0
98 1 6.499014086348963 6.205325199141513 9.415315676775487 0 0 0
203 1 0.12670731591464948 9.39419026680501 9.406192587458166 1 0 0
248 1 3.31472281780622 9.377364480321592 9.416914190743183 0 0 0
209 1 6.488009622240054 9.373448256290217 9.422510430030487 0 0 0
216 1 0.1409412625707591 12.543056624067255 9.420042147803304 0 0 0
218 1 3.3184177740643794 12.539714571490618 9.418675829846451 0 0 0
220 1 6.489742253613557 12.54339610380204 9.420335229255533 0 0 0
24 1 0.13744224578546646 15.69626229738011 9.41675493900285 0 -1 -1
76 1 3.321499657581953 15.699939325645392 9.415717816723847 0 -1 0
68 1 6.509954778313343 15.72764454618385 9.384905998320425 0 -1 0
77 1 1.7294856112769086 1.4066711610227653 10.999609980379212 0 0 0
168 1 4.893991765348267 1.483132698214372 10.944964338914543 0 0 0
187 1 1.394538753842506 4.9656124637624455 10.665720713682546 0 0 0
87 1 0.11597616522131814 3.07141555298565 12.556119225050208 0 0 0
102 1 2.813028916904299 3.5531820359425286 12.074816640704453 0 0 0
140 1 4.971933782705327 4.6128221163661385 10.99246059220851 0 0 0
74 1 6.550346933894133 3.020733557698488 12.59854439363275 0 0 0
125 1 0.12365577442332709 6.22420970601302 12.609547291366923 1 0 0
201 1 1.7035482495575582 7.806828640697962 10.976338522743259 0 0 0
123 1 4.903365287213386 7.7920305905766964 11.000175174877695 0 0 0
113 1 3.290931852335182 6.231190536735184 12.556331219231748 0 0 0
129 1 6.4944224545706195 6.209214408053867 12.583086736233701 0 0 0
231 1 0.13748772987293298 9.378234372762392 12.58340406208769 0 0 0
233 1 3.3114403801363137 9.37422049017269 12.580280399291313 0 0 0
25 1 6.489230918861898 9.372526344284685 12.586347924181577 0 0 -1
190 1 1.7261515893733703 10.95808462581874 10.999769997117623 1 0 0
208 1 0.1404628072434051 12.538016748307301 12.585939328378037 0 0 0
200 1 4.902794819707405 10.95557706015491 11.002354341029571 0 0 0
143 1 3.319478980645834 12.529381884485524 12.58550321189876 0 0 -1
245 1 6.491335426420381 12.535547919525404 12.580249300373218 0 0 0
217 1 1.7297380988218676 14.111432861453093 11.001973944646362 0 0 0
223 1 0.13685689525870914 15.70096833939432 12.584881990576068 1 -1 0
79 1 3.3365716419007616 15.643291411516689 12.602548759182433 0 -1 0
105 1 4.911302175541096 14.122832258880976 10.987690799556031 0 -1 0
244 1 6.4694481783390065 15.72416979578194 12.521866742278055 0 0 0
111 1 1.6888140015179254 1.4837318854392498 14.14343821691458 0 0 0
5 1 4.212780658015992 2.150578809139179 13.46479793987362 0 0 -1
110 1 1.7259610513194827 4.6276061682494305 14.220837895180363 1 0 0
2 1 0.13748808974602614 3.0421013763192692 15.754124548232271 1 0 0
114 1 4.8821938540334715 4.665728477114006 14.144583383185914 0 0 0
31 1 5.592125947955307 0.768962881465299 14.857758355137463 0 1 0
15 1 6.4721431142752675 3.0982006557862207 15.733765062480972 0 0 -1
122 1 1.726358445403462 7.794093602166899 14.16682743430894 0 0 0
12 1 0.13693945901737112 6.211504576713736 15.759192168145507 1 0 -2
235 1 4.8994590384740215 7.794604775236072 14.164353124974209 0 0 0
127 1 3.3162717273786484 6.210669066316713 15.754634703511247 0 0 -1
135 1 6.488663143288729 6.215408383119372 15.750585236211519 0 0 -1
141 1 0.14325405669234528 9.372874056225214 15.750452825080034 0 0 -1
133 1 3.317177611419876 9.37173475462201 15.751233737599119 0 0 -1
158 1 6.494999548422337 9.370057408270274 15.757563115185814 0 0 -1
49 1 1.7290473859311717 10.953993007109153 14.167731973028966 0 0 -1
150 1 0.14159915600935602 12.536439054947516 15.752184384694935 1 0 -1
142 1 3.3131809360689 12.532552400634808 15.752897048320547 0 0 -1
234 1 4.9075098772630295 10.949491735315371 14.172766917066589 0 0 0
145 1 6.5171057112146 12.513056694745364 15.780039042627328 0 0 -1
1 1 0.13167685177932512 15.705244388340077 15.749858248087811 0 -1 -1
242 1 1.7226716758187752 14.114164982671694 14.168583352288431 0 0 0
27 1 4.9254775529171 14.076953234176031 14.189514685579573 0 0 0
13 1 3.338440283306059 3.019430617014902 15.804748791139257 0 0 -1
146 1 8.081138437013621 1.5122753212836442 1.5144115081203564 0 1 0
8 1 11.253206571139577 1.4568280650855103 1.5156524841702697 0 0 0
106 1 14.421496244130973 1.4584553669881646 1.5100521697832388 0 1 0
17 1 8.077200590303681 4.631266945061497 1.5126615612463445 0 0 0
243 1 11.249687321275232 4.6211067524080915 1.5099772233282127 0 0 0
225 1 14.42157254363286 4.622118325499421 1.5077877642522295 0 1 1
128 1 8.079520611247755 7.7857746658158815 1.5131659488925 0 0 0
229 1 11.251768540134224 7.782078836940381 1.5090428684076154 0 0 1
130 1 14.423044282046824 7.788132422073446 1.5063621951393702 0 0 0
136 1 8.102149437966013 10.937924953592047 1.5364784887407634 0 0 0
137 1 11.263026523061152 10.941634484794372 1.5080304627028993 0 0 0
164 1 14.429264110215465 10.95217754811463 1.5090852206970675 0 0 0
112 1 8.408168570214693 13.787290208529939 1.844975821897647 0 0 0
224 1 11.26922236941056 14.094516983005875 1.5378378035994371 0 -1 0
101 1 14.425753065187301 14.11745262065377 1.5132824554721478 -1 -1 1
54 1 8.07941330956226 1.4579750197527324 4.667162342012251 0 0 0
44 1 11.243986600868329 1.4622458412099266 4.692184290152576 0 0 0
56 1 14.422190874111681 1.4594745973372705 4.675016439988551 -1 0 0
42 1 9.667668140277977 3.047324664730457 3.1047340698085786 0 0 0
64 1 8.075074432863062 4.610425044013356 4.68747492799173 0 0 0
35 1 11.240469246308574 4.611947533806272 4.682691789814901 0 0 0
36 1 12.834733258812799 3.0384066042882902 3.093175837251949 -1 0 0
65 1 14.418402949339438 4.622621513267084 4.668287403671748 0 0 0
88 1 9.662460123224802 6.198970751569942 3.0955001183655675 0 0 0
161 1 8.075435601723091 7.7807178765915594 4.678420279414905 0 0 0
181 1 11.252217270989455 7.770554712312995 4.678593061513158 0 0 0
50 1 12.833966551505346 6.199659887815817 3.0894299426874916 0 0 0
155 1 14.418955813144327 7.79217123392983 4.657944978363922 0 0 0
55 1 9.677191080596703 9.349850372772059 3.1075217584440162 0 0 0
154 1 12.841527968566249 9.366311297304845 3.086136289317089 0 0 0
66 1 9.854361226869214 12.358157990269246 3.283479662065701 0 0 0
172 1 8.073814793282322 10.94550153306379 4.68832695258855 0 0 0
162 1 11.327044122886738 10.878311977931345 4.7535647272125905 0 0 0
138 1 12.857981503899829 12.524592101977438 3.1099423034952354 0 0 0
165 1 14.4404823138695 10.95103235994131 4.679331860953112 0 0 0
32 1 9.679939641381223 15.723124746358556 3.1177044359626214 0 -1 0
171 1 8.101380677714355 14.107840149963266 4.709580230682846 0 0 0
103 1 12.840336291058367 15.701504173863992 3.0993596591486607 -1 -2 0
30 1 11.256655457536608 14.133196900084744 4.7003080372701795 0 0 0
197 1 14.42864244948913 14.121924035036145 4.678730950046986 0 -1 0
91 1 11.267559452558222 1.4595336987718253 7.840140124966877 0 0 0
239 1 14.419005266800923 1.4567880671766977 7.8337813561329455 0 0 0
59 1 9.641163734978576 3.0183850975269393 6.280041071099337 0 0 0
149 1 8.075260807634965 4.638996807811252 7.837055030842446 0 0 -1
60 1 12.827168522418225 3.039853332819987 6.253774087755994 0 0 0
99 1 11.231377210241039 4.612461151144063 7.835381851713314 0 0 0
206 1 14.404370257436037 4.619263305181064 7.8230915807686765 0 0 0
179 1 8.072973863425238 7.790108910557511 7.838826042368616 0 0 0
175 1 9.657977162620337 6.195941538322026 6.256266858708557 0 0 0
92 1 12.827512163408873 6.198242875144933 6.252079401337611 0 0 0
189 1 11.229500149798326 7.791897248286364 7.834028415276097 0 0 0
43 1 14.341775832680735 7.8691825533917985 7.758264464972601 0 0 0
118 1 9.65602787700583 9.367539927410075 6.2611432831749285 0 0 0
194 1 12.834480475443549 9.373094788452027 6.256087844841006 0 0 0
184 1 9.678040480200563 12.530002701650899 6.278754219463052 0 0 0
193 1 8.07550772914466 10.95199930069134 7.844910089592918 0 0 0
163 1 12.839786344792108 12.546673432962779 6.263713721967038 0 0 0
214 1 11.25145788326432 10.954328811559959 7.855421732018615 0 0 0
195 1 14.418559429829214 10.972744042833106 7.835269080497105 0 0 0
69 1 9.647396165982173 15.722139400452162 6.286341690020998 0 -1 0
198 1 8.080215690064428 14.10022002659123 7.841785278269754 0 0 0
33 1 12.834121591344987 15.705349451663917 6.260739041860231 0 -1 0
199 1 11.242456256301743 14.132367750898771 7.845932438441599 0 0 0
16 1 14.421800282749746 14.125246604599155 7.839926807941732 0 0 0
53 1 9.643588202543631 3.0209112299079495 9.398113907453084 0 -1 0
94 1 12.823787595676048 3.04448749781386 9.41697127953521 0 0 0
104 1 9.65779779061672 6.201921375620408 9.41931209332507 0 0 0
100 1 12.808111057233868 6.219989582891828 9.4040143008309 0 0 0
119 1 9.65798367065006 9.373015402945448 9.425552056281287 0 0 0
73 1 12.828807264139092 9.378496801780562 9.426836486950542 0 0 0
221 1 9.663862423591539 12.543539195186755 9.425518615138108 0 0 0
213 1 12.83379082719225 12.545129890700045 9.424634962112698 0 0 0
39 1 9.645650337046678 15.723701735075755 9.398893945794935 0 0 0
84 1 12.829996808857482 15.70497005331307 9.422944257483222 0 -1 0
107 1 8.084579452163796 1.4589264234518486 11.009772357639438 0 0 0
120 1 11.24002360466286 1.4601699761873597 10.992058040867065 0 0 0
188 1 14.41610098828032 1.4616938808430155 10.999270102505415 0 0 0
81 1 8.086902647227793 4.613041191576232 10.990885398997778 0 0 0
20 1 9.67282481022312 3.038960992415107 12.581427900429052 0 0 0
23 1 12.830646933512535 3.0458894573941397 12.57862985356359 0 0 0
93 1 11.236944666191288 4.619212713004966 10.991723149254035 0 0 0
96 1 14.399146631540884 4.650833385493831 10.97624020815677 -1 0 0
151 1 8.074759288775988 7.788600995573892 11.003393056822622 1 0 0
124 1 9.66137254210076 6.205619452227222 12.583796620297294 0 0 0
204 1 11.241077686110788 7.791430594810418 11.003578867662474 0 0 0
183 1 12.82659976474868 6.209391788493542 12.58167251940571 0 0 1
89 1 14.406234786084966 7.8044015914685225 11.006014488752472 0 0 0
237 1 9.660694541009516 9.371994240890116 12.58732263760591 0 0 0
230 1 12.83202032416214 9.375741395029081 12.587716177707312 0 0 0
211 1 8.074809249381262 10.95703127364245 11.003610715625397 0 0 0
247 1 9.666234073540616 12.535903539300046 12.57627410036875 0 0 0
205 1 11.247805989395806 10.957922548200631 11.006121062486114 0 0 0
6 1 12.834546160709056 12.541664618759194 12.585989715392342 0 0 0
215 1 14.419048841325884 10.962539208206778 11.004026086550198 0 0 0
82 1 8.076486788744957 14.13259468828564 10.981081653374623 0 -1 0
7 1 9.667124817802788 15.702913416766869 12.5768493434734 0 -1 -1
249 1 11.242274476100413 14.130498069380108 10.996896376724942 0 0 0
58 1 12.833614537765063 15.705246516466273 12.584839037703947 0 0 0
108 1 14.420244781230236 14.123099012668236 11.004503793406837 0 0 0
219 1 8.11875934038684 1.4353507444320117 14.193946924708618 0 0 0
85 1 11.25388592805097 1.4545882925121592 14.171558805664704 0 0 0
228 1 14.416345658786959 1.4642440997607657 14.163767222256082 0 0 0
18 1 9.668540110432893 3.044078099033205 15.753275634048945 0 0 -1
153 1 8.082965559378469 4.628586859793269 14.166857587527776 0 0 0
117 1 11.249474787890986 4.623617039306483 14.166560585009014 0 0 0
10 1 12.83530385162134 3.0402952542312476 15.751440170213762 0 0 -1
95 1 14.416757907150092 4.627054581902599 14.166758946603164 0 0 0
28 1 9.663601572480486 6.205892463755902 15.752264047748433 0 0 -1
202 1 8.076526446419123 7.790137792981449 14.169537256104695 0 0 0
21 1 12.834378968066671 6.204772675113999 15.750499022784346 -1 0 -1
173 1 11.247356340820412 7.788168447630503 14.168754781797002 0 0 0
226 1 14.416274172515273 7.79497894402757 14.171925288715476 -1 0 0
29 1 9.666641385898302 9.36669822607852 15.754982729561307 0 0 0
139 1 12.838349793495187 9.369560082573454 15.750776368312536 0 0 -1
236 1 8.079025638965339 10.9511909397992 14.170282370435393 0 0 0
147 1 9.678887987316116 12.522488379250243 15.728638761100687 0 0 -1
238 1 11.254086662406747 10.950524198902288 14.16587217843561 0 0 0
148 1 12.841620669493723 12.53391975640274 15.754964539675276 0 0 -1
240 1 14.423258735508524 10.956546614418517 14.168790102372945 0 0 0
246 1 8.078692371671469 14.119551469133706 14.112916011286645 0 0 0
109 1 9.688939984963566 15.673718651622956 15.781662318346724 0 -1 0
115 1 11.253467995307188 14.118329882006497 14.169153483351009 0 0 0
250 1 12.837874963018931 15.697973180099636 15.75763033011166 0 0 0
241 1 14.420996655063956 14.120599354101966 14.169537803940262 0 0 0
222 1 15.813952997904419 6.393752151123048 9.230616339174462 -1 0 0

Velocities

11 0 0 0
4 0 0 0
180 0 0 0
14 0 0 0
131 0 0 0
132 0 0 0
207 0 0 0
134 0 0 0
46 0 0 0
83 0 0 0
52 0 0 0
185 0 0 0
37 0 0 0
38 0 0 0
116 0 0 0
152 0 0 0
40 0 0 0
126 0 0 0
157 0 0 0
47 0 0 0
212 0 0 0
48 0 0 0
156 0 0 0
22 0 0 0
160 0 0 0
166 0 0 0
176 0 0 0
170 0 0 0
232 0 0 0
45 0 0 0
26 0 0 0
167 0 0 0
169 0 0 0
192 0 0 0
159 0 0 0
51 0 0 0
227 0 0 0
70 0 0 0
71 0 0 0
57 0 0 0
72 0 0 0
41 0 0 0
75 0 0 0
186 0 0 0
62 0 0 0
210 0 0 0
63 0 0 0
61 0 0 0
177 0 0 0
19 0 0 0
174 0 0 0
191 0 0 0
182 0 0 0
121 0 0 0
9 0 0 0
78 0 0 0
97 0 0 0
196 0 0 0
80 0 0 0
34 0 0 0
144 0 0 0
86 0 0 0
67 0 0 0
90 0 0 0
3 0 0 0
178 0 0 0
98 0 0 0
203 0 0 0
248 0 0 0
209 0 0 0
216 0 0 0
218 0 0 0
220 0 0 0
24 0 0 0
76 0 0 0
68 0 0 0
77 0 0 0
168 0 0 0
187 0 0 0
87 0 0 0
102 0 0 0
140 0 0 0
74 0 0 0
125 0 0 0
201 0 0 0
123 0 0 0
113 0 0 0
129 0 0 0
231 0 0 0
233 0 0 0
25 0 0 0
190 0 0 0
208 0 0 0
200 0 0 0
143 0 0 0
245 0 0 0
217 0 0 0
223 0 0 0
79 0 0 0
105 0 0 0
244 0 0 0
111 0 0 0
5 0 0 0
110 0 0 0
2 0 0 0
114 0 0 0
31 0 0 0
15 0 0 0
122 0 0 0
12 0 0 0
235 0 0 0
127 0 0 0
135 0 0 0
141 0 0 0
133 0 0 0
158 0 0 0
49 0 0 0
150 0 0 0
142 0 0 0
234 0 0 0
145 0 0 0
1 0 0 0
242 0 0 0
27 0 0 0
13 0 0 0
146 0 0 0
8 0 0 0
106 0 0 0
17 0 0 0
243 0 0 0
225 0 0 0
128 0 0 0
229 0 0 0
130 0 0 0
136 0 0 0
137 0 0 0
164 0 0 0
112 0 0 0
224 0 0 0
101 0 0 0
54 0 0 0
44 0 0 0
56 0 0 0
42 0 0 0
64 0 0 0
35 0 0 0
36 0 0 0
65 0 0 0
88 0 0 0
161 0 0 0
181 0 0 0
50 0 0 0
155 0 0 0
55 0 0 0
154 0 0 0
66 0 0 0
172 0 0 0
162 0 0 0
138 0 0 0
165 0 0 0
32 0 0 0
171 0 0 0
103 0 0 0
30 0 0 0
197 0 0 0
91 0 0 0
239 0 0 0
59 0 0 0
149 0 0 0
60 0 0 0
99 0 0 0
206 0 0 0
179 0 0 0
175 0 0 0
92 0 0 0
189 0 0 0
43 0 0 0
118 0 0 0
194 0 0 0
184 0 0 0
193 0 0 0
163 0 0 0
214 0 0 0
195 0 0 0
69 0 0 0
198 0 0 0
33 0 0 0
199 0 0 0
16 0 0 0
53 0 0 0
94 0 0 0
104 0 0 0
100 0 0 0
119 0 0 0
73 0 0 0
221 0 0 0
213 0 0 0
39 0 0 0
84 0 0 0
107 0 0 0
120 0 0 0
188 0 0 0
81 0 0 0
20 0 0 0
23 0 0 0
93 0 0 0
96 0 0 0
151 0 0 0
124 0 0 0
204 0 0 0
183 0 0 0
89 0 0 0
237 0 0 0
230 0 0 0
211 0 0 0
247 0 0 0
205 0 0 0
6 0 0 0
215 0 0 0
82 0 0 0
7 0 0 0
249 0 0 0
58 0 0 0
108 0 0 0
219 0 0 0
85 0 0 0
228 0 0 0
18 0 0 0
153 0 0 0
117 0 0 0
10 0 0 0
95 0 0 0
28 0 0 0
202 0 0 0
21 0 0 0
173 0 0 0
226 0 0 0
29 0 0 0
139 0 0 0
236 0 0 0
147 0 0 0
238 0 0 0
148 0 0 0
240 0 0 0
246 0 0 0
109 0 0 0
115 0 0 0
250 0 0 0
241 0 0 0
222 0 0 0
