LAMMPS data file via write_data, version 22 Jul 2025, timestep = 35046, units = metal

250 atoms
1 atom types

-0.03770680386426475 15.863684803864304 xlo xhi
0 15.825978000000001 ylo yhi
0 15.825978000000001 zlo zhi

Masses

1 183.841

Atoms # atomic

11 1 1.6808561778402764 1.429807147240014 1.5813105554147908 0 0 0
4 1 4.8494495323511675 1.4285005704155447 1.5796102146533268 0 0 0
180 1 1.6773261436948397 4.594752713077047 1.582514195455201 0 0 0
2 1 0.08504033858861258 3.0286855807614685 0.011328630738107527 1 0 1
14 1 4.851435053817724 4.588472056372744 1.5826016243183125 0 0 0
12 1 0.08717353941934645 6.181310724646752 0.00603000327459271 0 0 0
126 1 1.674783049270245 7.757373564455359 1.587206798204 0 0 0
132 1 4.851862005455129 7.752509210992941 1.581968622599916 0 0 0
34 1 6.443794804879014 15.676498438783145 6.342925720161909 0 -1 0
131 1 0.08706103626670608 9.332499886612796 0.007468856158546066 0 0 0
133 1 3.2659127180466165 9.340281034921752 0.011459573390251665 0 0 0
196 1 3.2615854439419123 15.66924692942807 6.340115845819234 0 0 0
207 1 1.6751885119847811 10.923078145854022 1.596614271214359 0 0 0
150 1 0.0597025836873487 12.519117554729695 0.038670769487472625 1 0 0
134 1 4.848324144296067 10.923320434611782 1.5854326697318848 0 0 0
142 1 3.2688647616881767 12.506146263245714 0.008142999575159918 0 0 0
46 1 1.6732941415595193 14.096607847498792 1.5811951007263783 -1 0 0
83 1 4.842144736286266 14.088507312215496 1.5859836998430141 0 0 0
3 1 3.26925630831351 15.678064829001242 0.0003842709013297737 0 -1 0
52 1 1.6667307822905184 1.4171661989687758 4.751148881435234 0 0 0
185 1 4.849905901848113 1.4190276921511316 4.75308930447412 0 1 0
37 1 1.6492847827129817 4.564742373262767 4.734643385415003 0 0 0
38 1 0.10047532487673903 3.0303991675359208 3.1915467732322393 0 0 0
116 1 3.262851457205801 3.0030568673142835 3.1633777167776045 0 0 0
39 1 4.845073297546164 4.567305948933807 4.746676951084938 0 0 0
40 1 6.434471170659582 3.0058609158295755 3.165622031305619 0 0 0
157 1 0.08465525877477532 6.180559264422857 3.175915882448997 1 0 0
151 1 1.658217789432859 7.752832340683731 4.744354281985959 1 0 0
47 1 3.262405113488444 6.169051816450373 3.1602929100928376 0 0 0
152 1 4.8746246779535065 7.736980702675286 4.755344293643088 0 0 0
48 1 6.441705123479687 6.165303361043723 3.1555516410970603 0 0 0
156 1 0.08783785791489951 9.334732474713572 3.179485827721181 0 0 0
22 1 3.2680492443301237 9.331617163827927 3.171391959893331 0 0 0
160 1 6.448989371416874 9.350389269609602 3.1132813611823424 0 0 0
166 1 0.08590230040730032 12.510994248139209 3.1766508397387887 0 0 0
176 1 1.6669540814874166 10.9177725885428 4.7535091086545505 0 0 0
170 1 4.818987625180364 10.90477743772286 4.789377787014155 0 0 0
232 1 3.254079217791141 12.50394124407026 3.1731813277340195 0 0 0
45 1 6.389896320031121 12.478327955143488 3.197501538655945 0 0 0
26 1 0.09052191316172652 15.672161981172067 3.1795531294925405 0 -1 0
167 1 1.6668769682546636 14.091793740842096 4.75167425336288 0 0 0
169 1 3.261321166693698 15.669692859966622 3.1690752950587235 0 0 0
192 1 4.847785573373633 14.092952892443284 4.7574596389654795 0 0 0
159 1 6.432293196796037 15.674666732079817 3.1688733231461366 0 -1 0
71 1 0.0811488501090866 3.0093304949402704 6.346512540160934 0 0 0
57 1 3.243881761036765 2.971825849460175 6.324127031556785 0 0 0
72 1 4.854668254885426 4.411508866629082 7.891825459467057 0 0 0
41 1 6.461251640095307 2.9621644832564433 6.326413867101383 0 0 0
75 1 0.07753736132612622 6.1686023024797345 6.343529143638505 1 0 0
62 1 3.178825214292458 6.112217112508204 6.231144484835028 0 0 0
63 1 6.508011220372183 6.0423304899060115 6.263067003204698 0 0 0
61 1 0.08243854638702588 9.329369790446586 6.349357432437242 0 0 0
177 1 3.2333950706878727 9.289003741373387 6.317826062555773 0 0 0
210 1 5.893827399573179 9.032570853848867 6.865457051479102 0 0 0
19 1 7.4169864437359365 10.280753846593038 5.3855005970731105 0 0 0
174 1 0.08106540283193335 12.504180354397755 6.333177839970722 1 0 0
191 1 1.7022855358042517 10.90423704963135 7.8946952931315355 0 0 0
182 1 3.2430073973096416 12.527411831149921 6.323176610869804 0 0 0
9 1 6.482148497392208 12.579046562495 6.3097450549409935 0 -1 0
78 1 0.08098800161565924 15.672457377862886 6.340347197876239 1 -1 0
127 1 3.263900229074275 6.174371651407014 0.000977506404861687 0 0 0
51 1 1.67575309920693 1.4297740987717433 7.927519788166169 0 0 0
227 1 4.859098603279635 1.412066577270926 7.938059541211471 0 0 0
86 1 0.07943969299571371 3.0053612090878783 9.493221053787108 0 0 0
70 1 1.700181737364658 4.590634789090551 7.9344941124414365 0 -1 0
35 1 3.264147083322359 2.9951490385791497 9.53981487782166 0 0 0
90 1 6.436284104850246 2.9976043417452223 9.53847893298715 0 0 0
222 1 0.08658512881928859 6.163680019105559 9.506546637136495 0 0 0
186 1 1.6876528436248892 7.725665550342994 7.959442796768827 0 0 0
187 1 3.2936874992665746 5.952252281250442 9.700473710656727 0 0 0
27 1 4.8718778413330135 14.0917943282876 14.235755457401655 0 0 0
98 1 6.485205571059329 6.077342157133992 9.660112636508375 0 0 0
190 1 0.024057858382140092 9.348990093817656 9.514534580434473 1 0 0
208 1 2.28865543271975 10.28755250281794 10.491222676482067 0 0 0
248 1 3.782702642695582 9.039541600277479 8.983231718042045 0 0 0
209 1 6.461793775619803 9.293199547744463 9.524388678547105 0 0 0
216 1 0.10209711377188956 12.481251225150455 9.451962709171248 0 0 0
218 1 3.2262083497737546 12.578178726995938 9.546870203406778 0 0 0
121 1 4.878144276304702 11.20691619409761 7.952842393334287 0 0 0
220 1 6.504131104838788 12.573712731938024 9.567820218069388 0 0 0
24 1 0.07920426541554303 15.677733654014432 9.497271102318862 0 -1 -1
97 1 1.6715923280931595 14.095650248321407 7.919293951554227 0 0 0
80 1 4.863319659406026 14.104271320325294 7.936649734816847 0 -1 0
76 1 3.2609673399160597 15.68152298301673 9.506701647298804 0 -1 0
68 1 6.463039736810412 15.65629241210276 9.527316598904013 0 -1 0
77 1 1.6712848601576602 1.4322508437451447 11.094658311373937 0 0 0
67 1 4.860903255352722 1.393299767801986 11.088571679983412 0 0 0
87 1 1.5987479147923551 4.553519176133977 11.114049466575175 0 0 0
111 1 0.09790936936376123 3.03303671939227 12.654010186111032 0 0 0
102 1 3.289278330953107 3.0413421061885906 12.632705330099649 0 0 0
140 1 6.415185635329187 3.0309973571694075 12.637322519453164 0 0 0
125 1 0.09085948519574502 6.184043966988189 12.662048142904373 1 0 0
201 1 1.7206944404751183 7.7086808288149875 11.048580721558166 0 0 0
123 1 4.826480060674885 7.781277888960671 11.0964798462863 0 0 0
113 1 3.277550208681714 6.146496233296066 12.660783270938497 0 0 0
129 1 6.418843745834219 6.1529646324040135 12.644244676612118 0 0 0
231 1 0.1190455540430452 9.279652872249367 12.632183374294755 0 0 0
233 1 3.2624297091431482 9.342124510651153 12.741726588781189 0 0 0
25 1 6.438980560613081 9.335656284796695 12.671620284882108 0 0 -1
243 1 0.8816947063271178 11.713547361616147 11.868407432223925 0 0 0
200 1 4.9043038619674 10.927297614714936 11.061837539016759 0 0 0
143 1 3.3148690178102314 12.47885642962896 12.644990366405013 0 0 -1
245 1 6.471629308440597 12.5280813474578 12.646839535631399 0 0 0
217 1 1.6383565473115402 14.15114399292227 11.117202463606713 0 0 0
223 1 0.053655991710661086 15.701728889259496 12.695613277237781 1 -1 0
79 1 3.2717583620253414 15.684292373092715 12.668440993021411 0 -1 0
105 1 4.832975433383051 14.09800413965319 11.089442802281798 0 -1 0
244 1 6.458865631564235 15.658424805923877 12.644967633185232 0 0 0
168 1 1.6976254047527162 1.4461778161572725 14.236616514403995 0 0 0
5 1 4.859701785487302 1.436031753207764 14.225046577542267 0 0 -1
110 1 1.6823229522190266 4.592913458284202 14.244946558150652 1 0 0
114 1 4.852658175882646 4.590367906294228 14.264876622407623 0 0 0
13 1 3.2663397008855948 3.0113402140783267 15.818927776962786 0 0 -1
15 1 6.439233659822303 3.0109740480474962 15.817440279970548 0 0 -1
122 1 1.6814539887691913 7.74589064768324 14.248161670994065 0 0 0
235 1 4.856708030969407 7.743339464453016 14.246162503826755 0 0 0
1 1 0.078505734892733 15.684267308794322 15.797193271553052 0 -1 -1
49 1 1.6541041735251292 10.946998933092127 14.295226327462007 0 0 -1
234 1 4.86618449492619 10.931090493232523 14.2458145054573 0 0 0
242 1 1.7438045176878083 14.082749208886337 14.239531279290675 0 0 0
158 1 6.4424840742102365 9.341952215946224 15.819925410011848 0 0 -1
178 1 4.838689854554706 7.029198580620069 7.943524157181635 0 0 0
144 1 6.432499945421849 15.67980205985869 15.81927341548115 0 0 -1
135 1 6.440516542828736 6.174675175860475 15.821230922856929 0 0 -1
145 1 6.437177951273503 12.506418347125987 15.821519309135757 0 0 -1
6 1 8.01332222194692 1.435871888728815 1.5824917445119395 0 0 0
8 1 11.124719693737438 1.5588826408349037 1.6662448172089668 0 0 0
33 1 12.800957181275852 15.675882453253067 6.345118576602084 0 -1 0
10 1 14.482508375847669 1.4858424104063843 1.6708075081048084 0 0 0
17 1 8.026628809243109 4.592915196707284 1.57684335785403 0 0 0
18 1 11.195121290625085 4.629544401232854 1.6022697366040106 0 0 0
225 1 12.79928423564141 3.168590756222089 0.006569819809041404 0 1 1
20 1 14.405752751083632 4.622560889394135 1.603409850677189 0 0 0
128 1 8.027386425058525 7.754822701356022 1.5815096496467402 0 0 0
229 1 11.20537681361156 7.7544394468604025 1.5930238861654817 0 0 1
21 1 12.799933458419929 6.193704431903271 0.005830837213699033 -1 0 0
130 1 14.395001734846918 7.758701782830504 1.5924464591599843 0 0 0
198 1 8.035169863503695 14.098822956858125 7.910327330985645 0 0 0
139 1 12.799468619096467 9.326160485248211 0.003832931558211941 0 0 0
136 1 8.051935270307812 10.950659033371547 1.5403219548855618 0 0 0
137 1 11.174646489758073 10.849521945066018 1.6217660487070866 0 0 0
164 1 14.41919037806322 10.89483018491613 1.6152733965500479 0 0 0
109 1 9.613418242563494 15.68944813758229 0.018771708606350336 0 -1 1
112 1 7.962607670489008 14.082590586015115 1.5941895283853271 0 0 0
224 1 11.705690282531892 14.371677835146073 1.0787595422060714 0 -1 0
212 1 14.408879859843887 14.131694310055877 1.6044408558493388 0 0 0
54 1 8.039801646373705 1.4185443053320261 4.748516956441931 0 0 0
44 1 11.208798645070665 1.4364959756938966 4.771803852303271 0 0 0
56 1 14.390255102812535 1.4314031353729946 4.763975550829136 -1 0 0
42 1 9.59465444739308 3.044567992727591 3.195929247610545 0 0 0
64 1 8.050561225401635 4.558956996492091 4.73681217109067 0 0 0
36 1 12.807334899686948 3.0253264491719967 3.17218435542263 -1 0 0
92 1 11.216971954443915 4.59311993848148 4.759785065074447 0 0 0
65 1 14.389021109545789 4.595076472221039 4.761637768915325 0 0 0
88 1 9.610912127803859 6.180597454701234 3.1813427193943413 0 0 0
161 1 8.000716146571895 7.726654094681938 4.787791524460239 0 0 0
50 1 12.801946500429771 6.181749938333036 3.177679908168479 0 0 0
181 1 11.21641324521338 7.753718067774965 4.760073826715299 0 0 0
155 1 14.392327102922033 7.757255809618172 4.759988001660748 0 0 0
55 1 9.588224782670057 9.282569987176196 3.2058289583969444 0 0 0
154 1 12.804567536618116 9.335340950660768 3.176567003255719 0 0 0
172 1 8.806351890648537 11.698988663292926 3.984084299157505 0 0 0
66 1 10.20772715330956 13.117417132399495 2.5858144035312476 0 0 0
162 1 11.255847125957148 10.950455633839107 4.7354706594593985 0 0 0
138 1 12.832634835663017 12.522513388515996 3.1478199843779935 0 0 0
165 1 14.400392737313323 10.923889746503106 4.758844208873283 0 0 0
32 1 9.644529059236762 15.698166753044172 3.144882841528517 0 -1 0
171 1 8.0599225648654 14.146187744451973 4.724713279295087 0 0 0
103 1 12.774534662111622 15.687220601249676 3.1679400794820265 -1 -2 0
30 1 11.205402478908123 14.084071791187348 4.824639489855204 0 0 0
197 1 14.38660657919387 14.096846571370177 4.756937567668572 0 -1 0
59 1 9.61941867286024 3.0083968240775567 6.351587197493634 0 0 0
60 1 12.800440478186538 3.011345473497087 6.344403207048034 0 0 0
175 1 9.630933589355063 6.165519565234421 6.342214254935082 0 0 0
43 1 12.803565823511788 6.174292850515898 6.343046797942143 0 0 0
118 1 9.6879901417989 9.349078286573778 6.337188913964648 0 0 0
194 1 12.810476710114862 9.341789006882554 6.342320110955207 0 0 0
184 1 9.600002754955327 12.480053845967626 6.3965671763149015 0 0 0
163 1 12.804201971291272 12.506008006488965 6.345312782679473 0 0 0
69 1 9.620993716716104 15.676640768066141 6.353212673658933 0 -1 0
179 1 8.011498785034618 7.735483941134581 7.903072797642071 0 0 0
250 1 12.78576475318955 0.5378886331375239 0.005762011728444705 0 1 1
148 1 12.800414156006093 12.236636198940277 0.003995043367586604 0 0 0
28 1 9.613205058004464 6.181355824733007 0.0016470293295594018 0 0 0
31 1 8.027420626749363 1.4182961354136026 7.941387725890255 0 0 0
91 1 11.202783151414199 1.4197279377607068 7.93121804575976 0 0 0
239 1 14.38915077469861 1.4278046339275394 7.91952889629828 0 0 0
53 1 9.621003782741164 2.9989881199006017 9.49819771802618 0 -1 0
149 1 8.01500987994386 4.579088673758763 7.943402801478443 0 0 -1
94 1 12.797670774036959 3.009508625582297 9.501853816935496 0 0 0
74 1 11.210447700107101 4.5890040733122905 7.924110008423459 0 0 0
206 1 14.395560294677331 4.590933459006454 7.923973284622666 0 0 0
99 1 9.622611968231697 6.172403532684731 9.50068658172175 0 0 0
101 1 13.866420066629603 14.380498243142613 14.750459720881597 -1 -1 0
100 1 12.802073149375204 6.174788871761361 9.501778512752205 0 0 0
189 1 11.213176846897435 7.753178745659341 7.924569202562229 0 0 0
203 1 14.393060566337395 7.751535627452209 7.923819315167855 0 0 0
119 1 9.621147463400817 9.335076275977345 9.498147153913678 0 0 0
73 1 12.79137944399257 9.342301647566707 9.50585910556098 0 0 0
221 1 9.603539384617987 12.527064357540718 9.536313499478407 0 0 0
193 1 8.00807360483758 10.921459473513103 7.976013027394682 0 0 0
214 1 11.208125723309506 10.931078355355233 7.936008376559848 0 0 0
213 1 12.792315696490197 12.505404102759448 9.500534964130397 0 0 0
195 1 14.388581325598812 10.922563293521332 7.919188618218621 0 0 0
82 1 9.599750618583125 15.651438894719206 9.52673250220974 0 -1 0
84 1 12.793428148356426 15.6772603203345 9.498053050561992 0 -1 0
199 1 11.200334813712354 14.089086848308519 7.942690705440195 0 0 0
107 1 8.023333691941085 1.449249986752516 11.087381269473779 0 0 0
120 1 11.19715756829014 1.4212863522354373 11.077085465036422 0 0 0
188 1 14.388847462064495 1.4356984822839591 11.072679377301867 0 0 0
81 1 8.08716753588475 4.568638961841844 11.106773177818498 0 0 0
106 1 9.594670645278262 3.023625636562135 12.647442060783499 0 0 0
23 1 12.787778752127057 3.020841229408582 12.670763725388316 0 0 0
93 1 11.214728423413394 4.593550174896774 11.081229412730456 0 0 0
96 1 14.379225752834438 4.59202945001214 11.084760067358348 -1 0 0
104 1 8.033300697927386 7.744271012067013 11.095235121493095 0 0 0
124 1 9.613303150173477 6.183690666995098 12.664484571690544 0 0 0
183 1 12.798638912306128 6.182358576511672 12.66377227951284 0 0 1
204 1 11.208982507531276 7.758588942583738 11.082883991413276 0 0 0
89 1 14.390588563341653 7.752859384014353 11.082065811019866 0 0 0
237 1 9.613262996500582 9.338811129558348 12.65947756294131 0 0 0
230 1 12.795923283059512 9.336711131768471 12.663050645540999 0 0 0
211 1 8.035083704386969 10.893649686686162 11.088982168269867 0 0 0
247 1 9.587675197843335 12.533691367651796 12.6328116169115 0 0 0
205 1 11.19195996025489 10.934413971639843 11.084994497862796 0 0 0
240 1 12.761629206395847 12.523966597731647 12.693548631670131 0 0 0
215 1 14.34335238006704 10.951834522608365 11.110671813567912 0 0 0
7 1 9.57603209116508 15.6486857992302 12.623056422592319 0 -1 -1
58 1 12.812234961454035 15.690696299621756 12.665929587563351 0 0 0
249 1 11.236341365697829 14.097619611712306 11.083096506712529 0 0 0
108 1 14.397557684358464 14.083462517374102 11.021466129036757 0 0 0
219 1 8.008267421483568 1.43091535859357 14.225765923402834 0 0 0
85 1 11.098808450615978 1.4639918581442015 14.145133044351185 0 0 0
228 1 14.464376521524782 1.5522009603833076 14.181764624086766 0 0 0
146 1 9.615406509294036 3.0255648651625204 15.817764550847778 0 1 -1
153 1 8.014536087373497 4.595618040150462 14.235879405779388 0 0 0
117 1 11.192469557440846 4.618789537998453 14.233618981933438 0 0 0
95 1 14.404759971473757 4.629289130088179 14.236053403865817 0 0 0
202 1 8.02133181570966 7.752483861323295 14.239020907703454 0 0 0
115 1 11.168687713871272 14.132725267148997 14.211748271552262 0 0 0
173 1 11.205469358924729 7.760258554560304 14.245441868359183 0 0 0
226 1 14.396573114511252 7.755070363415294 14.245006506506426 -1 0 0
236 1 8.029660960376185 10.93501837205563 14.229503001993793 0 0 0
147 1 9.64285768181527 12.522378469776239 15.792200571505575 0 0 -1
246 1 8.025821400685683 14.099351923234503 14.26963483404861 0 0 0
238 1 11.173874936497326 10.906782481515773 14.212630636681766 0 0 0
241 1 15.387514844021187 13.129539219994943 13.268731443662018 0 0 0
141 1 14.428046590378111 10.849433137011934 14.21124219274302 -1 0 -1
16 1 14.389674551717762 14.089042950189146 7.91336127242967 0 0 0
29 1 9.614115438734132 9.335553317275991 15.824042587482502 0 0 0

Velocities

11 0 0 0
4 0 0 0
180 0 0 0
2 0 0 0
14 0 0 0
12 0 0 0
126 0 0 0
132 0 0 0
34 0 0 0
131 0 0 0
133 0 0 0
196 0 0 0
207 0 0 0
150 0 0 0
134 0 0 0
142 0 0 0
46 0 0 0
83 0 0 0
3 0 0 0
52 0 0 0
185 0 0 0
37 0 0 0
38 0 0 0
116 0 0 0
39 0 0 0
40 0 0 0
157 0 0 0
151 0 0 0
47 0 0 0
152 0 0 0
48 0 0 0
156 0 0 0
22 0 0 0
160 0 0 0
166 0 0 0
176 0 0 0
170 0 0 0
232 0 0 0
45 0 0 0
26 0 0 0
167 0 0 0
169 0 0 0
192 0 0 0
159 0 0 0
71 0 0 0
57 0 0 0
72 0 0 0
41 0 0 0
75 0 0 0
62 0 0 0
63 0 0 0
61 0 0 0
177 0 0 0
210 0 0 0
19 0 0 0
174 0 0 0
191 0 0 0
182 0 0 0
9 0 0 0
78 0 0 0
127 0 0 0
51 0 0 0
227 0 0 0
86 0 0 0
70 0 0 0
35 0 0 0
90 0 0 0
222 0 0 0
186 0 0 0
187 0 0 0
27 0 0 0
98 0 0 0
190 0 0 0
208 0 0 0
248 0 0 0
209 0 0 0
216 0 0 0
218 0 0 0
121 0 0 0
220 0 0 0
24 0 0 0
97 0 0 0
80 0 0 0
76 0 0 0
68 0 0 0
77 0 0 0
67 0 0 0
87 0 0 0
111 0 0 0
102 0 0 0
140 0 0 0
125 0 0 0
201 0 0 0
123 0 0 0
113 0 0 0
129 0 0 0
231 0 0 0
233 0 0 0
25 0 0 0
243 0 0 0
200 0 0 0
143 0 0 0
245 0 0 0
217 0 0 0
223 0 0 0
79 0 0 0
105 0 0 0
244 0 0 0
168 0 0 0
5 0 0 0
110 0 0 0
114 0 0 0
13 0 0 0
15 0 0 0
122 0 0 0
235 0 0 0
1 0 0 0
49 0 0 0
234 0 0 0
242 0 0 0
158 0 0 0
178 0 0 0
144 0 0 0
135 0 0 0
145 0 0 0
6 0 0 0
8 0 0 0
33 0 0 0
10 0 0 0
17 0 0 0
18 0 0 0
225 0 0 0
20 0 0 0
128 0 0 0
229 0 0 0
21 0 0 0
130 0 0 0
198 0 0 0
139 0 0 0
136 0 0 0
137 0 0 0
164 0 0 0
109 0 0 0
112 0 0 0
224 0 0 0
212 0 0 0
54 0 0 0
44 0 0 0
56 0 0 0
42 0 0 0
64 0 0 0
36 0 0 0
92 0 0 0
65 0 0 0
88 0 0 0
161 0 0 0
50 0 0 0
181 0 0 0
155 0 0 0
55 0 0 0
154 0 0 0
172 0 0 0
66 0 0 0
162 0 0 0
138 0 0 0
165 0 0 0
32 0 0 0
171 0 0 0
103 0 0 0
30 0 0 0
197 0 0 0
59 0 0 0
60 0 0 0
175 0 0 0
43 0 0 0
118 0 0 0
194 0 0 0
184 0 0 0
163 0 0 0
69 0 0 0
179 0 0 0
250 0 0 0
148 0 0 0
28 0 0 0
31 0 0 0
91 0 0 0
239 0 0 0
53 0 0 0
149 0 0 0
94 0 0 0
74 0 0 0
206 0 0 0
99 0 0 0
101 0 0 0
100 0 0 0
189 0 0 0
203 0 0 0
119 0 0 0
73 0 0 0
221 0 0 0
193 0 0 0
214 0 0 0
213 0 0 0
195 0 0 0
82 0 0 0
84 0 0 0
199 0 0 0
107 0 0 0
120 0 0 0
188 0 0 0
81 0 0 0
106 0 0 0
23 0 0 0
93 0 0 0
96 0 0 0
104 0 0 0
124 0 0 0
183 0 0 0
204 0 0 0
89 0 0 0
237 0 0 0
230 0 0 0
211 0 0 0
247 0 0 0
205 0 0 0
240 0 0 0
215 0 0 0
7 0 0 0
58 0 0 0
249 0 0 0
108 0 0 0
219 0 0 0
85 0 0 0
228 0 0 0
146 0 0 0
153 0 0 0
117 0 0 0
95 0 0 0
202 0 0 0
115 0 0 0
173 0 0 0
226 0 0 0
236 0 0 0
147 0 0 0
246 0 0 0
238 0 0 0
241 0 0 0
141 0 0 0
16 0 0 0
29 0 0 0
