LAMMPS data file via write_data, version 22 Jul 2025, timestep = 19644, units = metal

250 atoms
1 atom types

-0.041730867106424256 15.86770886710643 xlo xhi
0 15.825978000000001 ylo yhi
0 15.825978000000001 zlo zhi

Masses

1 183.841

Atoms # atomic

11 1 1.7159099827547561 1.5378477658390313 1.5169182450399041 0 0 0
4 1 4.90578273235486 1.5373578667724586 1.5282514221634755 0 0 0
12 1 1.7147150171997074 4.699627910517805 1.5218998601877565 0 0 0
14 1 4.907511953522254 4.704719905230179 1.5307250255050635 0 0 0
126 1 1.694057566131148 7.889361996317044 1.601025497315484 0 0 0
132 1 4.89651582591371 7.8721791339083795 1.5424249943585948 0 0 0
80 1 4.8993583989749565 14.179674562828042 7.852293100532267 0 -1 0
46 1 1.7915645045484156 10.966565467042034 1.4222216654325026 -1 0 0
72 1 4.921732844449892 4.682151261328372 7.8605818729535235 0 0 0
134 1 4.896899687412806 11.023335524979615 1.528795034500471 0 0 0
142 1 1.7333613110792583 14.190241623624326 1.537988171036065 0 0 0
144 1 4.8968490534222875 14.193155416927304 1.530810043109934 0 0 0
52 1 1.7028798434661279 1.5198696527508757 4.635499040335937 0 0 0
58 1 4.910016819083374 1.5402842416394442 4.686695664124691 0 0 0
38 1 0.13670967290871 3.1192378473501314 3.100489756771299 0 0 0
37 1 1.7239620928965114 4.707352023030621 4.689032647504179 0 0 0
39 1 4.910031397416011 4.708886231717805 4.687944682640151 0 0 0
185 1 3.315020507432118 3.123387625698475 3.098487739234643 0 1 0
40 1 6.498289675090339 3.122996222781505 3.108544574623843 0 0 0
180 1 0.1348830456066472 6.280565535329586 3.109265523397122 0 0 0
151 1 1.7215190222103964 7.853166274526612 4.699443388961092 1 0 0
47 1 3.313362829454593 6.292022180280348 3.118562363404719 0 0 0
152 1 4.890307029476546 7.880882500812557 4.690065635042815 0 0 0
48 1 6.4951207764904275 6.2859429126905795 3.1122351323290083 0 0 0
156 1 0.13878850995267406 9.498215464774852 3.1724553141298317 0 0 0
22 1 3.287690792806486 9.481968793017003 3.1321116718269053 0 0 0
160 1 6.480741379806352 9.44494193909344 3.109725620234038 0 0 0
166 1 0.5389047682565375 12.493018067060547 3.2348807800244033 0 0 0
170 1 4.920406912675386 11.029774562771987 4.694195351865117 0 0 0
232 1 3.3146464886954723 12.598476290891488 3.127177146081309 0 0 0
45 1 6.471407367002322 12.614820572746698 3.1089077788137662 0 0 0
26 1 0.12083635081891056 15.729660367677399 3.0894654758415117 0 -1 0
167 1 1.790534703346071 14.308706436910386 4.758182213278346 0 0 0
169 1 3.3231384845283065 15.781207932981 3.1030490167110405 0 0 0
192 1 4.899545803861137 14.195207105939685 4.6985089130328515 0 0 0
159 1 6.489989751747616 15.783376599191916 3.110488320975353 0 -1 0
51 1 0.9278267093235852 0.7184487975036945 7.03625436708837 0 0 0
196 1 3.3878161796697825 15.813479735538978 6.315709851188166 0 0 0
127 1 3.294218520100439 6.29595516425264 0.003216846529716574 0 0 0
56 1 0.16416208331636428 3.1656877077842553 6.3019477367787085 0 0 0
57 1 3.311565539425857 3.119324749506433 6.2134990089341935 0 0 0
34 1 6.491807185541272 15.788395580079644 6.285257598004281 0 -1 0
41 1 6.5068485411421815 3.120892749202644 6.2622499134403435 0 0 0
61 1 0.13497390866242273 6.299943885787153 6.274832799867582 0 0 0
186 1 1.7266879629220526 7.886605844035672 7.840351191885567 0 0 0
62 1 3.320957354346318 6.289871387573006 6.273930708923907 0 0 0
178 1 4.896900053939509 7.890802927208442 7.834174497337129 0 0 0
63 1 6.498417124561202 6.2877730995603685 6.265039594365633 0 0 0
176 1 0.14386634093003878 9.469945974659415 6.254194013555407 0 0 0
177 1 3.2908835016634272 9.4742078888765 6.250598614984518 0 0 0
161 1 6.4811941743722645 9.4473198680238 6.276889124794005 0 0 0
174 1 0.13835941232808704 12.548054117771153 6.225234832184636 1 0 0
191 1 1.7210624190895094 11.02389020123807 7.872120907990386 0 0 0
182 1 3.2876350055035313 12.5920949538675 6.2406594641380835 0 0 0
210 1 4.889785160946476 11.033972748504612 7.843797846075954 0 0 0
9 1 6.481076347858945 12.613997997072431 6.278634490098637 0 -1 0
97 1 1.6961624445145813 14.129988664776862 7.825324120189917 0 0 0
71 1 1.7405522190537968 4.7402734148381604 7.890721800006696 0 0 0
227 1 4.93355178585058 1.5673136447830789 7.891179980473195 0 0 0
49 1 0.12151907207879097 12.637966452565859 0.0017755416022815496 0 0 0
35 1 2.3355973064179683 2.1209208373278567 8.44935198247223 0 0 0
67 1 4.918220596312076 1.539417643302895 10.996604997549484 0 0 0
86 1 0.07004577321261621 3.0914978047685246 9.423918759449693 0 0 0
146 1 6.48867033538133 15.780922653754281 15.770179782580781 0 0 -1
66 1 3.5871018586799766 3.633575962695238 9.947313197221021 0 0 0
90 1 6.628119908099846 3.0415844846822115 9.364789361171702 0 0 0
96 1 0.1078779391147401 6.313377104071551 9.424973983631881 0 0 0
187 1 3.3572807585173416 6.314274453380351 9.419322117122974 0 0 0
98 1 6.55130621366547 6.3811550570903925 9.345758229995052 0 0 0
206 1 0.13220868140370318 9.448919608584221 9.42983729012033 0 0 0
208 1 3.3191987607864184 9.451273346476691 9.436670807835032 0 0 0
175 1 6.4982873682869755 9.460320030074978 9.437025724964847 0 0 0
216 1 0.13502834292353114 12.605298805103837 9.444445019410253 0 0 0
218 1 3.312059037585329 12.603652561999239 9.432495622165625 0 0 0
220 1 6.493963253010692 12.611026510249314 9.439809344420727 0 0 0
24 1 0.1624718268057818 15.80439085265434 9.486273374476617 0 -1 -1
76 1 3.3075140200126834 15.70905170113014 9.437941223194573 0 -1 0
68 1 6.503773022371964 15.762789830934475 9.439492267257197 0 -1 0
77 1 1.7300118073298068 1.573084085015758 11.072501087120294 0 0 0
79 1 3.3199989110072705 15.77709395640938 12.604719802529425 0 -1 0
87 1 1.4521920291453327 4.717273394048627 11.059044508490715 0 0 0
111 1 0.08171064201683043 3.1154938931068883 12.670032621335862 0 0 0
104 1 3.3605672006025755 3.095584058164152 12.628007745543226 0 0 0
89 1 5.593271731727889 4.699846243395128 11.018773154778389 0 0 0
115 1 6.558989822460328 3.0265141039206176 12.69588051029373 0 0 0
201 1 1.7311288112229284 7.838902832907907 10.991797461771199 0 0 0
123 1 4.923855109618705 7.867948879378352 11.040542222620386 0 0 0
157 1 3.6154243557576837 5.785797775012433 12.111275108827718 0 0 0
135 1 6.62961634600218 6.358267936968776 12.679488186306186 0 0 -1
231 1 0.15658300863157795 9.415085659272176 12.572708556203269 0 0 0
233 1 3.310245256352235 9.502267595713647 12.607355329562123 0 0 0
203 1 6.505283340934034 9.460956882943758 12.605753484018459 0 0 0
243 1 1.721759338003936 11.030410027100558 11.02404128017779 0 0 0
241 1 0.13557828931169774 12.61555678759347 12.610713217870996 0 0 0
207 1 3.3120854315609307 12.619390876769849 12.607514368668783 0 0 0
209 1 4.907814372519335 11.035492016110899 11.018028506911923 0 0 0
245 1 6.495951801456926 12.614088170025516 12.604712346067227 0 0 0
168 1 0.13693346545586907 15.781510556356611 12.61882657095409 0 -1 0
217 1 1.722091024691751 14.192371322933385 11.029184107843479 0 0 0
105 1 4.909225592641253 14.190136270598552 11.025072562895206 0 -1 0
244 1 6.500856152785004 15.771437987131522 12.605045060117618 0 0 0
102 1 1.7226324829411228 1.5390489132787355 14.19740769231125 0 0 0
5 1 4.907535576224861 1.5221905757181216 14.202369690165554 0 0 -1
113 1 1.7799562568763747 4.663294487315401 14.165165665142837 0 0 0
110 1 0.1217870256900335 3.130228342225228 15.753679016605217 1 0 0
114 1 4.933687204818873 4.720433883970003 14.190421208811824 0 0 0
121 1 -0.007097920604312169 6.276044147651834 12.708701523215973 0 0 0
15 1 6.50438148127506 3.1187036117898472 15.782466853228971 0 0 -1
122 1 2.299027546741451 7.267518434936348 13.583074647461435 0 0 0
21 1 0.13007387686227492 6.189675429241481 15.706855409982044 0 0 -1
235 1 4.926827389362724 7.831617278915581 14.157592535173263 0 0 0
23 1 6.50297278144765 6.2872989660901375 15.788099087755167 0 0 -1
226 1 0.9097381755737021 8.651328645147256 15.02759413650814 0 0 0
133 1 3.3739710560411713 9.401901120510407 15.734175390160571 0 0 -1
158 1 6.489008517892368 9.43805265364878 15.76245552964284 0 0 -1
143 1 1.6934288553600039 11.065758686954167 14.215767212759665 0 0 -1
183 1 3.321137227041438 12.617105913580295 15.771625157867394 0 0 0
234 1 4.905291033772466 11.033758051396125 14.186907853493496 0 0 0
145 1 6.487579999818218 12.613009344993237 15.76819504441472 0 0 -1
13 1 3.3212931613932177 3.1201916868452604 15.777861548471359 0 0 -1
242 1 1.7206903868159478 14.199347643057596 14.197753208134927 0 0 0
1 1 0.13586004691679135 15.78511926527167 15.774310433079664 0 -1 -1
27 1 4.904252178287047 14.195617613872683 14.188476836465897 0 0 0
3 1 3.312417484383698 15.778071114901714 15.773377511706137 0 -1 -1
6 1 8.089124711280345 1.5401815941968677 1.5319570787144416 0 0 0
8 1 11.281436713940911 1.5502170349870428 1.5250068454363872 0 0 0
10 1 14.450425764388978 1.5445581501715155 1.528335363945886 0 0 0
16 1 8.093969748126973 4.701818493761892 1.529927024008606 0 0 0
18 1 11.284661525002424 4.698724600057942 1.5185919160862218 0 0 0
20 1 14.454056731121982 4.689517373657413 1.5450566943674648 0 0 0
128 1 8.086602300715342 7.863859088510739 1.5350403504043597 0 0 0
129 1 11.274000627797129 7.840420916730094 1.5190312615603039 0 0 0
130 1 14.471430237674376 7.769859859442709 1.5063997586837345 0 0 0
131 1 15.372499461627363 10.049263604799934 0.5718048462972397 -1 0 0
136 1 8.048550823612317 11.017608376647013 1.5159103356497814 0 0 0
137 1 11.151364394161872 10.9539083818251 1.4533169802216155 0 0 0
140 1 14.22491536737043 11.603793712363656 2.09452496886758 0 0 0
112 1 8.058974887997797 14.21059492483132 1.5147881270688708 0 0 0
148 1 11.216426052151508 14.291733658626706 1.4358074030968342 0 0 0
224 1 12.86073223036352 15.765694419953066 3.148156574253084 0 -1 0
150 1 14.421478400777852 14.226557883981435 1.503389959744739 0 0 0
54 1 8.089152362744901 1.5398114900060222 4.6856953579856775 0 0 0
44 1 11.26724417317867 1.5505178161010227 4.692678203408783 0 0 0
36 1 12.861103009069915 3.119868195944295 3.1049694116057087 -1 0 0
103 1 14.467545353597158 1.6013962834608204 4.700752868332031 -1 -1 0
42 1 9.682244339375977 3.1224788658654927 3.1083165140440654 0 0 0
64 1 8.092235510150694 4.703940669013576 4.6901192673137615 0 0 0
43 1 11.274934637740648 4.70344482014534 4.689115594322337 0 0 0
65 1 14.456209270515556 4.710898731911843 4.694962059853349 0 0 0
88 1 9.680651088643737 6.280840561678237 3.108659579034222 0 0 0
153 1 8.08252601176822 7.864618024640909 4.688081628743866 0 0 0
50 1 12.86006039305975 6.279673645356869 3.105186821212696 0 0 0
154 1 11.272215604751937 7.861760853487392 4.6849625706897235 0 0 0
155 1 14.452546250903636 7.872498280274042 4.681101610948975 0 0 0
55 1 9.666508309968865 9.44586445912013 3.1135952651022265 0 0 0
164 1 12.86701007911328 9.4576306857828 3.061163735605682 0 0 0
19 1 8.05824244450375 11.017531008035354 4.7057005806182834 0 0 0
172 1 9.529473772038948 12.614164448147807 3.1105881310465375 0 0 0
138 1 12.164160870384896 12.61446068313718 3.1128782134110655 0 0 0
162 1 11.2059120981561 10.935861056580505 4.784935226476623 0 0 0
165 1 14.364778240491269 10.992734769404045 4.729773446937711 0 0 0
32 1 9.66945803449405 15.780559101336989 3.103758828000527 0 -1 0
171 1 8.049990593299002 14.20921824423069 4.706010696882558 0 0 0
30 1 11.154058265407887 14.27557665358993 4.7725024324236305 0 0 0
197 1 14.22499235114241 13.632028979862346 4.126189168443801 0 -1 0
31 1 8.12342331903305 1.5140744811646416 7.836705202518138 0 0 0
53 1 11.278928048223918 1.528358083079447 7.853830378760241 0 -1 0
92 1 8.106479737960958 4.710853083851351 7.858141777471395 0 0 0
78 1 15.370279687742386 15.153750658139883 5.6841359697388345 0 -1 0
59 1 9.684367494127025 3.127097458081056 6.273786743335784 0 0 0
60 1 12.86287619075062 3.1236630306016906 6.275929238994156 0 0 0
74 1 11.282371766816453 4.703580983272327 7.856123766151445 0 0 0
75 1 14.45081522567765 4.7068799477014815 7.855398617234662 0 0 0
179 1 8.109076414357537 7.889327095593567 7.835420814211973 0 0 0
181 1 9.685611678093743 6.282962633593097 6.26955306810774 0 0 0
73 1 12.865138732979425 6.286404219672854 6.272022513579638 0 0 0
189 1 11.278817634165376 7.86921061338167 7.856213128121935 0 0 0
190 1 14.45674895484727 7.88009556543473 7.846343795456509 0 0 0
118 1 9.654185472560206 9.426146212319052 6.2973545049870765 0 0 0
194 1 12.85645033690663 9.431715659035035 6.290333936175557 0 0 0
184 1 9.665089742607721 12.6087320898927 6.275491340409706 0 0 0
193 1 8.081942641162977 11.035449218932744 7.859859961376348 0 0 0
163 1 12.862831322985251 12.656346781830374 6.265438302236911 0 0 0
222 1 11.270443370776805 11.035348603746105 7.863010433211262 0 0 0
195 1 14.45087071457934 11.0359632239658 7.852206694316478 0 0 0
69 1 9.64875063751928 15.801188597854146 6.298040761291656 0 -1 0
198 1 8.085334558861366 14.189124687827304 7.860988164945759 0 0 0
33 1 12.830028621024432 15.75214864824793 6.253017896363963 0 -1 0
199 1 11.263884181348391 14.1965422299464 7.875998248424565 0 0 0
239 1 14.409383898956028 1.5040436886176314 7.833130172346932 0 0 0
81 1 9.721969726956255 3.108169272689603 9.432487183969945 0 0 0
94 1 12.86192799110395 3.1132949353642343 9.443955505073898 0 0 0
99 1 9.711380665954513 6.29628695638596 9.429882025674186 0 0 0
100 1 12.866243974062899 6.2903389504641245 9.441768032995327 0 0 0
119 1 9.685881307360606 9.452887089628044 9.443735162760184 0 0 0
214 1 12.865221824370165 9.449081795508949 9.442396555959524 0 0 0
223 1 9.676982089293624 12.613249507517313 9.443943682819409 0 0 0
213 1 12.85680253080553 12.608397297914925 9.448992469294662 0 0 0
82 1 9.684393345258227 15.778720335277528 9.451835663415954 0 -1 0
84 1 12.862408086858641 15.779665774173072 9.453115510719153 0 -1 0
70 1 14.460418034502156 14.190415009115503 7.942725002585441 0 -1 0
219 1 8.108542852507961 1.5342845079890581 11.0318313246795 0 0 0
83 1 11.28991290809839 1.5394863591249237 11.03629076456406 0 0 0
188 1 14.451283575694156 1.5432333186910356 11.042716808412347 0 0 0
120 1 9.71788230301332 3.1049798085105915 12.62039372347052 0 0 0
91 1 8.234997891095256 4.700754741955807 11.026454332649287 0 0 0
85 1 12.889221189312227 3.135964762220014 12.634845535655488 0 0 0
93 1 11.30713781801299 4.701291243835704 11.035600841408312 0 0 0
95 1 14.435509762571666 4.700575906240564 11.006444169836591 0 0 0
124 1 9.72429372616518 6.295948146597156 12.618373661192834 0 0 0
25 1 8.107945493020079 7.86783485881456 11.01467488071865 0 0 -1
125 1 12.88059758977597 6.271582170485786 12.633288696892269 0 0 0
204 1 11.287162418726863 7.8639521478917915 11.029614376431022 0 0 0
205 1 14.450809414729948 7.858565761646615 11.033537153564472 0 0 0
139 1 12.826571369697426 9.472951751980942 15.807367471160916 0 0 -1
237 1 9.682625713368429 9.449379786584803 12.60079507851006 0 0 0
230 1 12.855215281524956 9.449205572374787 12.600018092910416 0 0 0
211 1 8.090123635683614 11.033485851854394 11.02255383742594 0 0 0
247 1 9.678103433556057 12.614668943857342 12.606038654730632 0 0 0
212 1 11.27057828190557 11.032194406678228 11.023357464437307 0 0 0
240 1 12.85754202891651 12.615888841742224 12.60676674136906 0 0 0
215 1 14.45480288280324 11.027749338476228 11.018471708682402 0 0 0
107 1 9.687791698292717 15.77654623837584 12.607426977440523 0 -1 0
221 1 8.091011614593226 14.193921202021478 11.025103864609145 0 0 0
249 1 11.272717277676586 14.196291742359168 11.028883034127194 0 0 0
225 1 12.865110243910381 15.782255844511564 12.611503268581101 0 0 0
108 1 14.45547215176421 14.197348892748302 11.03861082291862 0 0 0
106 1 8.114462760537483 1.5156305605483094 14.211420927390881 0 0 0
101 1 14.448480395537127 14.185432553570443 14.196147838086539 -1 -1 0
109 1 11.292094203704835 1.542893496579969 14.195722763840243 0 0 0
2 1 14.450714970660318 1.5075519678839013 14.201896139424532 0 0 0
116 1 8.107759971116904 4.69343747766483 14.191989615025918 0 0 0
17 1 9.693501035445127 3.120043127963234 15.777898075633765 0 0 -1
228 1 12.887357411315389 3.138424165347454 15.753359809997198 0 0 0
117 1 11.262312390489823 4.6983825943072395 14.194463957578499 0 0 0
202 1 8.122053605417939 7.88682983878305 14.211621444277652 0 0 0
28 1 9.688031096310675 6.276439435107442 15.774298159808058 0 0 -1
173 1 11.28559195944296 7.865499691293847 14.199254194801357 0 0 0
229 1 12.88010436398044 6.254440918577197 15.746703940336207 0 0 0
29 1 9.649063838470068 9.425568540987305 15.750469068076246 0 0 0
248 1 11.271974137738145 14.19527553354108 14.187197840213617 0 0 0
200 1 14.38747315102023 7.936097935818441 14.22790399224432 0 0 0
147 1 9.66549656790157 12.620427050638577 15.77368312029563 0 0 -1
238 1 11.26362391349224 11.030357638506413 14.17830973052528 0 0 0
149 1 12.856867672278797 12.578703573430714 15.790918460863946 0 0 -1
141 1 14.458581170943123 11.027799604918648 14.127731910313065 -1 0 -1
246 1 8.085398803411332 14.193754064460908 14.186112573529648 0 0 0
250 1 12.863092941340888 15.794991739916146 15.765853774719446 0 0 0
7 1 9.660712726619334 15.80311527381257 15.750295555794638 0 -1 -1
236 1 8.086193003352443 11.037580482257251 14.18710691665322 0 0 0

Velocities

11 0 0 0
4 0 0 0
12 0 0 0
14 0 0 0
126 0 0 0
132 0 0 0
80 0 0 0
46 0 0 0
72 0 0 0
134 0 0 0
142 0 0 0
144 0 0 0
52 0 0 0
58 0 0 0
38 0 0 0
37 0 0 0
39 0 0 0
185 0 0 0
40 0 0 0
180 0 0 0
151 0 0 0
47 0 0 0
152 0 0 0
48 0 0 0
156 0 0 0
22 0 0 0
160 0 0 0
166 0 0 0
170 0 0 0
232 0 0 0
45 0 0 0
26 0 0 0
167 0 0 0
169 0 0 0
192 0 0 0
159 0 0 0
51 0 0 0
196 0 0 0
127 0 0 0
56 0 0 0
57 0 0 0
34 0 0 0
41 0 0 0
61 0 0 0
186 0 0 0
62 0 0 0
178 0 0 0
63 0 0 0
176 0 0 0
177 0 0 0
161 0 0 0
174 0 0 0
191 0 0 0
182 0 0 0
210 0 0 0
9 0 0 0
97 0 0 0
71 0 0 0
227 0 0 0
49 0 0 0
35 0 0 0
67 0 0 0
86 0 0 0
146 0 0 0
66 0 0 0
90 0 0 0
96 0 0 0
187 0 0 0
98 0 0 0
206 0 0 0
208 0 0 0
175 0 0 0
216 0 0 0
218 0 0 0
220 0 0 0
24 0 0 0
76 0 0 0
68 0 0 0
77 0 0 0
79 0 0 0
87 0 0 0
111 0 0 0
104 0 0 0
89 0 0 0
115 0 0 0
201 0 0 0
123 0 0 0
157 0 0 0
135 0 0 0
231 0 0 0
233 0 0 0
203 0 0 0
243 0 0 0
241 0 0 0
207 0 0 0
209 0 0 0
245 0 0 0
168 0 0 0
217 0 0 0
105 0 0 0
244 0 0 0
102 0 0 0
5 0 0 0
113 0 0 0
110 0 0 0
114 0 0 0
121 0 0 0
15 0 0 0
122 0 0 0
21 0 0 0
235 0 0 0
23 0 0 0
226 0 0 0
133 0 0 0
158 0 0 0
143 0 0 0
183 0 0 0
234 0 0 0
145 0 0 0
13 0 0 0
242 0 0 0
1 0 0 0
27 0 0 0
3 0 0 0
6 0 0 0
8 0 0 0
10 0 0 0
16 0 0 0
18 0 0 0
20 0 0 0
128 0 0 0
129 0 0 0
130 0 0 0
131 0 0 0
136 0 0 0
137 0 0 0
140 0 0 0
112 0 0 0
148 0 0 0
224 0 0 0
150 0 0 0
54 0 0 0
44 0 0 0
36 0 0 0
103 0 0 0
42 0 0 0
64 0 0 0
43 0 0 0
65 0 0 0
88 0 0 0
153 0 0 0
50 0 0 0
154 0 0 0
155 0 0 0
55 0 0 0
164 0 0 0
19 0 0 0
172 0 0 0
138 0 0 0
162 0 0 0
165 0 0 0
32 0 0 0
171 0 0 0
30 0 0 0
197 0 0 0
31 0 0 0
53 0 0 0
92 0 0 0
78 0 0 0
59 0 0 0
60 0 0 0
74 0 0 0
75 0 0 0
179 0 0 0
181 0 0 0
73 0 0 0
189 0 0 0
190 0 0 0
118 0 0 0
194 0 0 0
184 0 0 0
193 0 0 0
163 0 0 0
222 0 0 0
195 0 0 0
69 0 0 0
198 0 0 0
33 0 0 0
199 0 0 0
239 0 0 0
81 0 0 0
94 0 0 0
99 0 0 0
100 0 0 0
119 0 0 0
214 0 0 0
223 0 0 0
213 0 0 0
82 0 0 0
84 0 0 0
70 0 0 0
219 0 0 0
83 0 0 0
188 0 0 0
120 0 0 0
91 0 0 0
85 0 0 0
93 0 0 0
95 0 0 0
124 0 0 0
25 0 0 0
125 0 0 0
204 0 0 0
205 0 0 0
139 0 0 0
237 0 0 0
230 0 0 0
211 0 0 0
247 0 0 0
212 0 0 0
240 0 0 0
215 0 0 0
107 0 0 0
221 0 0 0
249 0 0 0
225 0 0 0
108 0 0 0
106 0 0 0
101 0 0 0
109 0 0 0
2 0 0 0
116 0 0 0
17 0 0 0
228 0 0 0
117 0 0 0
202 0 0 0
28 0 0 0
173 0 0 0
229 0 0 0
29 0 0 0
248 0 0 0
200 0 0 0
147 0 0 0
238 0 0 0
149 0 0 0
141 0 0 0
246 0 0 0
250 0 0 0
7 0 0 0
236 0 0 0
