LAMMPS data file via write_data, version 22 Jul 2025, timestep = 37409, units = metal

250 atoms
1 atom types

-0.02088061133602634 15.846858611336087 xlo xhi
0 15.825978000000001 ylo yhi
0 15.825978000000001 zlo zhi

Masses

1 183.841

Atoms # atomic

11 1 1.7459142681566235 1.4543356072398956 1.5172362802460133 0 0 0
4 1 4.901810702136035 1.4297018835832573 1.4925981541970972 0 0 0
180 1 1.7502538197855537 4.622232626153903 1.5208677348576902 0 0 0
14 1 4.916623540939369 4.621850123042495 1.5175358433159882 0 0 0
126 1 1.7506124020742524 7.786204653415489 1.522666063460958 0 0 0
132 1 4.920196071140267 7.785891456873532 1.5214605805655055 0 0 0
207 1 1.7483793206033666 10.95299985450281 1.5236586610734082 0 0 0
134 1 4.918258464975958 10.947146937668427 1.5204574086519083 0 0 0
46 1 1.7423152174025012 14.116380577573807 1.5209226526629982 -1 0 0
83 1 4.905019453861558 14.103834104366921 1.5254439272933549 0 0 0
52 1 1.7507872673971994 1.458157322926251 4.6922437248722995 0 0 0
185 1 4.916692625999611 1.4553773496069062 4.691951330121613 0 1 0
37 1 1.7554856177104365 4.627444327365185 4.698644229044102 0 0 0
38 1 0.1742339886279651 3.043418305196665 3.1091617849828923 0 0 0
116 1 3.3327540926603105 3.0348925390358503 3.097568520839555 0 0 0
152 1 4.914554625518733 4.618245788019182 4.68875531064467 0 0 0
40 1 6.4779250210572465 3.012104598238781 3.077775612469826 0 0 0
157 1 0.1696558573147763 6.205923268089329 3.1039240669750088 1 0 0
151 1 1.7552284762355033 7.789397515892888 4.692809490927265 1 0 0
47 1 3.3352137162606117 6.2034451945523905 3.1072592819571647 0 0 0
212 1 4.919122681335106 7.785986084090519 4.689720456358473 0 0 0
48 1 6.501911693684649 6.208185163610101 3.1042716167998265 0 0 0
156 1 0.16915385966895483 9.376556313560556 3.0984689712619473 0 0 0
22 1 3.3361612159708973 9.368877835504872 3.1060579238043773 0 0 0
160 1 6.506524730814407 9.370880461475368 3.1035854348004537 0 0 0
166 1 0.1616680156105466 12.537942955283189 3.1061686407237104 0 0 0
176 1 1.7532802610187848 10.957450586412472 4.686580380257417 0 0 0
170 1 4.922332931725858 10.952650554569372 4.6868614265396715 0 0 0
232 1 3.331543624567408 12.533213053688009 3.1064246630274917 0 0 0
45 1 6.5036923406225 12.531740843667245 3.1011802867104543 0 0 0
26 1 0.16384666997491398 15.701439598095572 3.1056923294792194 0 -1 0
167 1 1.749376632169581 14.12248109651223 4.689016617908003 0 0 0
169 1 3.3295476211006627 15.698586940663558 3.1034241491887276 0 0 0
192 1 4.915092598740029 14.116048708356614 4.692561398112887 0 0 0
159 1 6.4929627808376615 15.687806846103095 3.135024763077529 0 -1 0
51 1 1.7713608050124037 1.4806671265011981 7.871221279118864 0 0 0
227 1 4.901199107097532 1.4804619133984944 7.871562384114518 0 0 0
71 1 0.18013200697291792 3.038504469297061 6.282535846101718 0 0 0
70 1 1.7790113353969512 4.600655164761401 7.876894118004911 0 -1 0
57 1 3.3362371459767566 3.0405257895269298 6.252756182588833 0 0 0
72 1 4.9006105290520425 4.6016858159644425 7.87364200183671 0 0 0
41 1 6.492320564196104 3.04009140613169 6.283860316526342 0 0 0
75 1 0.19929269129870186 6.224125946857716 6.309815800030224 1 0 0
186 1 1.771036179977099 7.804771162883459 7.879336930228905 0 0 0
62 1 3.3384598035365243 6.198532374766091 6.286390306957693 0 0 0
210 1 4.925577941117583 7.784361616409106 7.854991004655783 0 0 0
63 1 6.488296352509283 6.194710297070283 6.276073533583881 0 0 0
61 1 0.17651370471580582 9.382452825963925 6.260329689432633 0 0 0
177 1 3.3413831618413186 9.372232482998298 6.273327619716139 0 0 0
19 1 6.50758312071326 9.370267634911253 6.269150151968633 0 0 0
174 1 0.16748367907114062 12.544121228786215 6.272476745935735 1 0 0
191 1 1.7645195032613359 10.968548528988986 7.8482266278266835 0 0 0
182 1 3.338436852808869 12.541559683064119 6.268358595420832 0 0 0
121 1 4.92936517553646 10.95648809756045 7.849828077092327 0 0 0
9 1 6.50937048320018 12.537532167714406 6.267792514443131 0 -1 0
78 1 0.17254525547783833 15.710543016210826 6.277445915800677 1 -1 0
97 1 1.7521098957892751 14.1323177101238 7.850401527341642 0 0 0
196 1 3.3350162149212155 15.714410073837524 6.278828887603563 0 0 0
80 1 4.922154707987316 14.12588120578267 7.848391829183877 0 -1 0
34 1 6.495707822850625 15.705951556750701 6.28624344764833 0 -1 0
6 1 7.732613251118124 1.0963398749582574 1.156336752421152 0 0 0
86 1 0.15127182336590672 3.0327360339362084 9.439753048576465 0 0 0
90 1 6.525939063924645 3.04062873157777 9.434004754219075 0 0 0
222 1 0.19925256684045564 6.163554112551245 9.45674329764092 0 0 0
178 1 3.344062559000372 6.222482411784822 9.438925925290578 0 0 0
98 1 6.498225514877528 6.193822775116971 9.435063070463572 0 0 0
190 1 0.3317668093257185 9.543313916184932 9.597525231950643 1 0 0
248 1 3.3594776733354488 9.385369675626093 9.447174368191062 0 0 0
209 1 6.5123044776395025 9.36941501281134 9.434482588274701 0 0 0
216 1 0.1772241131942359 12.561819433047443 9.44686617030938 0 0 0
218 1 3.340320559496976 12.540421121509764 9.426120400045312 0 0 0
220 1 6.511677557601719 12.53857299077236 9.428727839965429 0 0 0
24 1 0.17461068098192986 15.717600569204874 9.434985024402698 0 -1 -1
76 1 3.3354148107633192 15.69022421160897 9.428356788624557 0 -1 0
68 1 6.496866271238865 15.711873775968774 9.42896930869082 0 -1 0
77 1 1.768949566653601 1.4820777369580014 10.994609927506149 0 0 0
67 1 4.897927065445161 1.480710457394275 10.986051946164421 0 0 0
187 1 1.7785501716578775 4.595594008848243 11.001969268396584 0 0 0
87 1 0.17216857779068168 3.041607496810928 12.58911177533392 0 0 0
102 1 3.3330413789334643 3.041700793163478 12.611669176542739 0 0 0
140 1 4.9039455341134115 4.601293535010488 10.993989454149533 0 0 0
168 1 6.49373456212584 3.0380191707537194 12.580595280876384 0 0 0
125 1 0.17579453742784737 6.198870943261702 12.596469872582018 1 0 0
201 1 1.761024810602567 7.780682173912842 11.026599623976654 0 0 0
123 1 4.928608390271331 7.780519592399497 11.018468368133059 0 0 0
113 1 3.3381743958887418 6.1925573740105415 12.589022712841027 0 0 0
129 1 6.502036986851162 6.1952101422023045 12.588532133975276 0 0 0
231 1 0.17634849164580726 9.382104228749288 12.618896962459049 0 0 0
233 1 3.3398136312350473 9.360491930192799 12.600552233980087 0 0 0
25 1 6.512146454183118 9.364367223646564 12.596837485342675 0 0 -1
208 1 1.8134917750395374 11.018101085063089 11.081180591584486 0 0 0
243 1 0.15498955147969257 12.542058232716299 12.601208792365826 0 0 0
200 1 4.938501602590823 10.95669172233012 11.018848954484067 0 0 0
143 1 3.323363882258945 12.52678975351367 12.58435540416732 0 0 -1
245 1 6.512902274498905 12.532464018583317 12.590996371283106 0 0 0
217 1 1.7516581285913113 14.141022482636645 11.018226931075732 0 0 0
223 1 0.16558994252973078 15.713922172198256 12.589869806214097 1 -1 0
79 1 3.3286905129382642 15.717911228598924 12.579006010454666 0 -1 0
105 1 4.916745441066399 14.12089873605724 10.99698155891319 0 -1 0
244 1 6.483369422681142 15.694899420559766 12.564897368759054 0 0 0
111 1 1.7425136142691684 1.4583636976876195 14.17136758250016 0 0 0
5 1 4.906029638342417 1.4618760532828599 14.157462239626867 0 0 -1
110 1 1.7486855562874186 4.622236416151458 14.17610506828846 1 0 0
2 1 0.16437168617468045 3.0407180881553573 15.76086481693396 1 0 0
114 1 4.916083876156794 4.6264415873466795 14.168176251801498 0 0 0
13 1 3.329520254496175 3.03758852442254 15.759762593830004 0 0 -1
15 1 6.490416487759364 3.0694555948863624 15.744407275920219 0 0 -1
122 1 1.7530555640394074 7.78426976719934 14.184225094239007 0 0 0
12 1 0.16480093572075993 6.204541010614644 15.76221632344264 0 0 -1
235 1 4.920980765990352 7.781951896973083 14.178178763551141 0 0 0
127 1 3.334546498985934 6.202272692512959 15.762494803270062 0 0 -1
135 1 6.503134593818836 6.2124262824469785 15.756799544190699 0 0 -1
131 1 0.16397789429450665 9.371246127891594 15.767234875895447 0 0 -1
133 1 3.334917401355127 9.365312634411609 15.766709091675535 0 0 -1
158 1 6.506579581302613 9.366070241222147 15.761141639057909 0 0 -1
49 1 1.7515643392875422 10.955904926645731 14.19493798993889 0 0 -1
150 1 0.15781852185968565 12.536557356759282 15.767011942961721 1 0 -1
234 1 4.916321194714046 10.935458422583928 14.174398330296238 0 0 0
142 1 3.3284542265072203 12.530412869718733 15.767257029207887 0 0 -1
145 1 6.490926905132897 12.516032231914878 15.745681113471845 0 0 -1
1 1 0.15835759438146216 15.701329672945674 15.761011725231645 0 -1 -1
242 1 1.7308842433540679 14.115873891241284 14.172622934249148 0 0 0
27 1 4.824948284144407 14.029438885778482 14.082036462954363 0 0 0
3 1 3.311753026961903 15.685774895031214 15.744105695380732 0 -1 -1
144 1 6.2936281175233715 15.492497532763075 15.552394088686288 0 0 -1
16 1 14.44914086197612 14.125333838016246 7.855946545870176 0 0 0
8 1 11.327852399599156 1.4603544837849611 1.5224740569552868 0 0 0
10 1 14.454087715586642 1.4598774279191091 1.5221173288712058 0 0 0
17 1 8.093920317515426 4.677937770682421 1.5198690882405095 0 0 0
18 1 11.246788329329835 4.601135088133157 1.4747254606329223 0 0 0
20 1 14.450653288374207 4.623294556075985 1.5158462798651091 0 0 0
128 1 8.094179211377005 7.79754356625823 1.5195588952247339 0 0 0
229 1 11.269632754991514 7.7950185802024965 1.5134890167364643 0 0 1
130 1 14.445989847260085 7.789724479874553 1.5105806343936126 0 0 0
136 1 8.09105061026308 10.951735726441731 1.516197790564473 0 0 0
137 1 11.268280821764657 10.955399449640817 1.5197806141292005 0 0 0
164 1 14.44257497766997 10.955093115856252 1.5223357827217767 0 0 0
112 1 8.067668218072459 14.101777122123707 1.4929237524571486 0 0 0
224 1 11.269066212255602 14.114563849778829 1.5183507817127393 0 -1 0
101 1 14.44259848068316 14.118837852973838 1.5221865755253137 -1 -1 1
54 1 8.092081130189648 1.459874380120226 4.747193701801588 0 0 0
44 1 11.247856433101381 1.415042162917167 4.665743798512268 0 0 0
56 1 14.452977067887483 1.4542694717266071 4.689334218021093 -1 0 0
42 1 9.145316199218048 2.5023241436658443 2.5693122811329063 0 0 0
64 1 8.045000540102933 4.597391327007514 4.665078538878469 0 0 0
35 1 10.538198947906329 3.9010797831201316 3.961257602489932 0 0 0
36 1 12.911365632879981 3.0662304778799974 3.1300018879470075 -1 0 0
92 1 11.930184865796672 5.27869746344194 5.3460393513734825 0 0 0
65 1 14.488567574169933 4.647306060120703 4.715033274093662 0 0 0
88 1 9.702134720797927 6.263493460215705 3.1241563084631294 0 0 0
161 1 8.086258508022544 7.79210153713665 4.687961537201916 0 0 0
50 1 12.842338579491898 6.19119445564311 3.0454860036487372 0 0 0
181 1 11.29214917235491 7.828377330024813 4.708638253917392 0 0 0
155 1 14.453957183135767 7.794542391575054 4.635044781608982 0 0 0
55 1 9.683443360507946 9.38079306259691 3.105192204942429 0 0 0
154 1 12.857924510829486 9.376772480818419 3.1011204845256337 0 0 0
66 1 9.67649064930137 12.534890656194126 3.0983583280463143 0 0 0
172 1 8.094351707542332 10.955102778675982 4.685399608396351 0 0 0
162 1 11.273817137008683 10.959458866783576 4.690688130365458 0 0 0
138 1 12.856509899465099 12.537082651097947 3.1051519750603025 0 0 0
165 1 14.448004301085485 10.958681987986823 4.689843600542745 0 0 0
32 1 9.655896060180083 15.67352040878929 3.0779608891206673 0 -1 0
171 1 8.090670555883726 14.116430338082266 4.687565032465042 0 0 0
103 1 12.861271049154785 15.69789939015201 3.1047131356858224 -1 -2 0
30 1 11.265998082018022 14.113503559625297 4.683212720118779 0 0 0
197 1 14.44646674717301 14.12047379617436 4.689757774161711 0 -1 0
31 1 8.089917374442194 1.4585046801350994 7.860717858038177 0 0 0
91 1 11.270182418313084 1.4522955738975558 7.858202603315893 0 0 0
239 1 14.452347323082616 1.4495784630819806 7.854134702156707 0 0 0
59 1 9.702256860599052 3.063014560634508 6.326406548074904 0 0 0
149 1 8.083451893830842 4.623044852679049 7.857284807637875 0 0 -1
60 1 12.847268954410305 2.981444642707401 6.258128102405422 0 0 0
33 1 12.857575876092511 15.692945916564906 6.2688577983085905 0 -1 0
206 1 14.45788859885388 4.579748990903502 7.857931806368139 0 0 0
179 1 8.08284900667579 7.786336335152584 7.85320665789288 0 0 0
175 1 9.621466253293683 6.186488757079077 6.250712218156683 0 0 0
43 1 13.332103687664691 6.687027161982455 6.740762925573514 0 0 0
189 1 11.21563135745748 7.7916128567965925 7.855849797078231 0 0 0
199 1 11.270619372901576 14.11891937129999 7.852428428966263 0 0 0
118 1 9.678882549010403 9.375380518228498 6.269239046243648 0 0 0
194 1 12.884530813030326 9.395101837881088 6.29707205881833 0 0 0
184 1 9.682843460909684 12.537019665447671 6.268509587316227 0 0 0
193 1 8.096583686109613 10.954689226712617 7.850085122886854 0 0 0
163 1 12.862258013678895 12.539614945474876 6.274543044443938 0 0 0
214 1 11.271467961450782 10.958461506737601 7.854468692850706 0 0 0
195 1 14.468553964571901 10.973589179062827 7.876726544393374 0 0 0
69 1 9.6808190796941 15.69738409549549 6.273622327802349 0 -1 0
198 1 8.094456061327147 14.120534661800209 7.851224261389984 0 0 0
74 1 11.293225607309424 4.646677728796489 7.892578816813866 0 0 0
53 1 9.686153003335646 3.042779103448049 9.443366681147316 0 -1 0
94 1 12.858173322628359 3.039163233356334 9.43942766885832 0 0 0
99 1 9.678065275841517 6.204760802279698 9.43860656637628 0 0 0
100 1 12.889373052648374 6.232642224334408 9.456621047440555 0 0 0
119 1 9.675529963504099 9.375480465124081 9.438574507749447 0 0 0
73 1 12.841171603910137 9.384232348802515 9.445847554543338 0 0 0
221 1 9.68362462791313 12.537895814776876 9.432259931594643 0 0 0
213 1 12.859517487284482 12.543020955490848 9.437732351139847 0 0 0
39 1 9.68032493219965 15.701981962865815 9.434252300668179 0 0 0
84 1 12.858928066292695 15.703393103853749 9.435449567193288 0 -1 0
107 1 8.086087345642358 1.4548877025155231 11.012849012377474 0 0 0
120 1 11.268875316076741 1.4580114413668304 11.017518614392166 0 0 0
188 1 14.44824414415583 1.459766099876781 11.017872189739036 0 0 0
81 1 8.089909539181784 4.621924465781706 11.016764991407152 0 0 0
106 1 9.675004746705502 3.0352681928207446 12.594347586864885 0 0 0
23 1 12.858199128866868 3.041500204799916 12.597312691442285 0 0 0
93 1 11.274782502685373 4.628003474210527 11.021343972340274 0 0 0
96 1 14.453597586266996 4.6236971250410335 11.022345259581156 -1 0 0
104 1 8.095287012764846 7.7843958766366645 11.015387947057864 0 0 0
124 1 9.682092683625596 6.204263818798965 12.596852361275856 0 0 0
183 1 12.864026080509314 6.20992995100887 12.599184559640857 0 0 1
204 1 11.27266558078713 7.790611942667603 11.01934999197427 0 0 0
89 1 14.472488117119529 7.809683192001828 11.032666014484715 0 0 0
237 1 9.683752215192454 9.369019295891398 12.598023941201046 0 0 0
230 1 12.859861579133085 9.374004486313526 12.602555812015932 0 0 0
211 1 8.098080893466792 10.953136470348719 11.014728121058983 0 0 0
247 1 9.683627055123083 12.533905467205775 12.594341354501319 0 0 0
205 1 11.267925542852224 10.957923183222347 11.019753707230784 0 0 0
240 1 12.855127079589664 12.539339649585736 12.600072084713263 0 0 0
215 1 14.441474333770872 10.966510316819324 11.028319549169845 0 0 0
82 1 8.093472118428835 14.118478854167005 11.008050040685703 0 -1 0
7 1 9.67811171801091 15.698468981276623 12.591983071824112 0 -1 -1
58 1 12.856417217037441 15.703811062814005 12.597146615827757 0 0 0
249 1 11.269324128918754 14.120896406462665 11.014700761186749 0 0 0
108 1 14.444528704640835 14.12809962541615 11.017528607386167 0 0 0
219 1 8.065346582043158 1.4316726993625488 14.159001045005205 0 0 0
85 1 11.268824714075295 1.456433428672691 14.175272106784481 0 0 0
228 1 14.444486555053086 1.4607857847299242 14.178026579374022 0 0 0
146 1 9.654566017014389 3.013533141365231 15.734739588050786 0 1 -1
153 1 8.090348743352411 4.620718122714495 14.172746700271933 0 0 0
225 1 12.861101716523601 3.041022047500053 15.758676611807878 0 1 0
117 1 11.265721562523222 4.618934791274623 14.173222358326468 0 0 0
95 1 14.446670247878801 4.622596778103367 14.177769436472841 0 0 0
28 1 9.681115936773997 6.209000722723918 15.757006215600954 0 0 -1
202 1 8.094392279997187 7.784652137716578 14.176852225225888 0 0 0
21 1 12.856060562305194 6.204090564493137 15.752468002905415 -1 0 -1
173 1 11.270573968180386 7.788346802842572 14.178345888170188 0 0 0
226 1 14.449004816099896 7.788948863587611 14.18119444933593 -1 0 0
29 1 9.681589207669166 9.371292628561285 15.761146924127381 0 0 0
139 1 12.856910478284496 9.372085224331485 15.762421692256046 0 0 -1
236 1 8.094952589133518 10.947632645263557 14.176605859363365 0 0 0
147 1 9.67909972717833 12.531946004249395 15.758586461369617 0 0 -1
238 1 11.269236298691744 10.952792344204289 14.1809676200063 0 0 0
148 1 12.855191224135462 12.536247831101672 15.764411476380676 0 0 -1
141 1 14.442668335298986 10.956213807695754 14.186362707356047 -1 0 -1
246 1 8.09770372878789 14.107661297490035 14.163908511629275 0 0 0
109 1 9.715023461853912 15.688172047189028 15.749059723798263 0 -1 0
250 1 12.865876223866927 15.698118690677404 15.759110877842398 0 0 0
115 1 11.273228971452689 14.114004894977171 14.17455978007081 0 0 0
241 1 14.44187395913377 14.121503597500869 14.179049643400987 0 0 0
203 1 14.76324522681884 8.07128322967441 8.176679037686133 0 0 0

Velocities

11 0 0 0
4 0 0 0
180 0 0 0
14 0 0 0
126 0 0 0
132 0 0 0
207 0 0 0
134 0 0 0
46 0 0 0
83 0 0 0
52 0 0 0
185 0 0 0
37 0 0 0
38 0 0 0
116 0 0 0
152 0 0 0
40 0 0 0
157 0 0 0
151 0 0 0
47 0 0 0
212 0 0 0
48 0 0 0
156 0 0 0
22 0 0 0
160 0 0 0
166 0 0 0
176 0 0 0
170 0 0 0
232 0 0 0
45 0 0 0
26 0 0 0
167 0 0 0
169 0 0 0
192 0 0 0
159 0 0 0
51 0 0 0
227 0 0 0
71 0 0 0
70 0 0 0
57 0 0 0
72 0 0 0
41 0 0 0
75 0 0 0
186 0 0 0
62 0 0 0
210 0 0 0
63 0 0 0
61 0 0 0
177 0 0 0
19 0 0 0
174 0 0 0
191 0 0 0
182 0 0 0
121 0 0 0
9 0 0 0
78 0 0 0
97 0 0 0
196 0 0 0
80 0 0 0
34 0 0 0
6 0 0 0
86 0 0 0
90 0 0 0
222 0 0 0
178 0 0 0
98 0 0 0
190 0 0 0
248 0 0 0
209 0 0 0
216 0 0 0
218 0 0 0
220 0 0 0
24 0 0 0
76 0 0 0
68 0 0 0
77 0 0 0
67 0 0 0
187 0 0 0
87 0 0 0
102 0 0 0
140 0 0 0
168 0 0 0
125 0 0 0
201 0 0 0
123 0 0 0
113 0 0 0
129 0 0 0
231 0 0 0
233 0 0 0
25 0 0 0
208 0 0 0
243 0 0 0
200 0 0 0
143 0 0 0
245 0 0 0
217 0 0 0
223 0 0 0
79 0 0 0
105 0 0 0
244 0 0 0
111 0 0 0
5 0 0 0
110 0 0 0
2 0 0 0
114 0 0 0
13 0 0 0
15 0 0 0
122 0 0 0
12 0 0 0
235 0 0 0
127 0 0 0
135 0 0 0
131 0 0 0
133 0 0 0
158 0 0 0
49 0 0 0
150 0 0 0
234 0 0 0
142 0 0 0
145 0 0 0
1 0 0 0
242 0 0 0
27 0 0 0
3 0 0 0
144 0 0 0
16 0 0 0
8 0 0 0
10 0 0 0
17 0 0 0
18 0 0 0
20 0 0 0
128 0 0 0
229 0 0 0
130 0 0 0
136 0 0 0
137 0 0 0
164 0 0 0
112 0 0 0
224 0 0 0
101 0 0 0
54 0 0 0
44 0 0 0
56 0 0 0
42 0 0 0
64 0 0 0
35 0 0 0
36 0 0 0
92 0 0 0
65 0 0 0
88 0 0 0
161 0 0 0
50 0 0 0
181 0 0 0
155 0 0 0
55 0 0 0
154 0 0 0
66 0 0 0
172 0 0 0
162 0 0 0
138 0 0 0
165 0 0 0
32 0 0 0
171 0 0 0
103 0 0 0
30 0 0 0
197 0 0 0
31 0 0 0
91 0 0 0
239 0 0 0
59 0 0 0
149 0 0 0
60 0 0 0
33 0 0 0
206 0 0 0
179 0 0 0
175 0 0 0
43 0 0 0
189 0 0 0
199 0 0 0
118 0 0 0
194 0 0 0
184 0 0 0
193 0 0 0
163 0 0 0
214 0 0 0
195 0 0 0
69 0 0 0
198 0 0 0
74 0 0 0
53 0 0 0
94 0 0 0
99 0 0 0
100 0 0 0
119 0 0 0
73 0 0 0
221 0 0 0
213 0 0 0
39 0 0 0
84 0 0 0
107 0 0 0
120 0 0 0
188 0 0 0
81 0 0 0
106 0 0 0
23 0 0 0
93 0 0 0
96 0 0 0
104 0 0 0
124 0 0 0
183 0 0 0
204 0 0 0
89 0 0 0
237 0 0 0
230 0 0 0
211 0 0 0
247 0 0 0
205 0 0 0
240 0 0 0
215 0 0 0
82 0 0 0
7 0 0 0
58 0 0 0
249 0 0 0
108 0 0 0
219 0 0 0
85 0 0 0
228 0 0 0
146 0 0 0
153 0 0 0
225 0 0 0
117 0 0 0
95 0 0 0
28 0 0 0
202 0 0 0
21 0 0 0
173 0 0 0
226 0 0 0
29 0 0 0
139 0 0 0
236 0 0 0
147 0 0 0
238 0 0 0
148 0 0 0
141 0 0 0
246 0 0 0
109 0 0 0
250 0 0 0
115 0 0 0
241 0 0 0
203 0 0 0
