LAMMPS data file via write_data, version 22 Jul 2025, timestep = 42698, units = metal

250 atoms
1 atom types

-0.019836465228774282 15.845814465228816 xlo xhi
0 15.825978000000001 ylo yhi
0 15.825978000000001 zlo zhi

Masses

1 183.841

Atoms # atomic

11 1 1.6662014817916846 1.4136207796532574 1.5810542639958511 0 0 0
4 1 4.835206729635015 1.4018565178154798 1.5865719532676117 0 0 0
180 1 1.6662790697695566 4.577679929758173 1.5813229722198807 0 0 0
14 1 4.83745924803317 4.5913812421852525 1.5877987806674472 0 0 0
131 1 1.6449711834128424 7.768959156728729 1.6026249935133234 0 0 0
132 1 4.850680190943278 7.748881516942629 1.581128773225108 0 0 0
207 1 1.6663599890546668 10.90780930938739 1.581254277635502 0 0 0
134 1 4.852000893055772 10.907796075142363 1.579220087162283 0 0 0
46 1 1.6432564876152935 14.044368859951902 1.604899031687536 -1 0 0
83 1 4.8475019897742175 14.064219602567366 1.582689997963059 0 0 0
52 1 1.6691000974564967 1.4121604675718988 4.737956076885289 0 0 0
185 1 4.844358327345401 1.4110449807591237 4.730714460644372 0 1 0
37 1 1.669373295063923 4.578818912293631 4.7378275514160855 0 0 0
38 1 0.08322486670218718 2.9958806410412255 3.1589348211936166 0 0 0
116 1 3.256128664419511 2.995883773532272 3.1554123238568015 0 0 0
152 1 4.845963182712836 4.581567503100317 4.729819980029365 0 0 0
40 1 6.434063237202017 2.9977145620795147 3.1523665281147397 0 0 0
126 1 0.08082659112692551 6.161138217473879 3.15993393669075 0 0 0
157 1 1.6670433880669668 7.746515714191599 4.740238303879957 1 0 0
47 1 3.254256025065165 6.168269470437178 3.165890763527435 0 0 0
212 1 4.850765988397771 7.746625651294681 4.7318805645534985 0 0 0
48 1 6.445651772830218 6.172067468151298 3.1559380035480253 0 0 0
156 1 0.08106580034728211 9.33019298674519 3.1635155203947334 0 0 0
22 1 3.257262322427709 9.32851349742726 3.1583357258501485 0 0 0
160 1 6.41592782202992 9.32585937990746 3.1559100288452484 0 0 0
166 1 0.07753479321314398 12.484716185312948 3.1636414415741783 0 0 0
176 1 1.6705525630540758 10.908577917890081 4.735131484038272 0 0 0
170 1 4.85323035590106 10.908023936106632 4.733570201804865 0 0 0
232 1 3.260730221953285 12.48591465647371 3.158555991558325 0 0 0
45 1 6.445311738151187 12.478719296124183 3.155432575525309 0 0 0
26 1 0.08217756303888901 15.655848906526124 3.1599225113498126 0 -1 0
167 1 1.6667095985878557 14.068526248709404 4.73998915621952 0 0 0
169 1 3.25249343124003 15.648417709283217 3.1661434270989166 0 0 0
192 1 4.84794857467267 14.066953893936263 4.730917288643751 0 0 0
159 1 6.436297009260822 15.653052919567306 3.1555659204945847 0 -1 0
51 1 1.6694610831271788 1.4132672335524246 7.904682231828771 0 0 0
227 1 4.798368564517418 1.3867400501516138 7.852559721043929 0 0 0
70 1 1.6694944439187622 4.57746101011967 7.904263154735676 0 -1 0
71 1 0.08696316754593643 2.9956866483001847 6.320424779576578 0 0 0
57 1 3.2503582625765195 2.9949227164814465 6.310495472173482 0 0 0
72 1 4.799644927395784 4.600212601003308 7.849495075253884 0 0 0
41 1 6.435082728635937 2.9970333449059443 6.311175592688134 0 0 0
75 1 0.08493961925215777 6.160258798764943 6.319836967590061 1 0 0
186 1 1.6697797738998303 7.744805745829087 7.902336289148048 0 0 0
62 1 3.2485342266437645 6.171866973545497 6.308434386736642 0 0 0
210 1 4.814125848294382 7.78272282674567 7.862279162551867 0 0 0
63 1 6.441356992269379 6.1737667866828625 6.300084406180928 0 0 0
61 1 0.08868089588273724 9.32785389776927 6.317902863925723 0 0 0
177 1 3.250782120113245 9.335372781833176 6.306372766704672 0 0 0
19 1 6.4456607866428834 9.327811290262014 6.29983492990123 0 0 0
174 1 0.08834587893178986 12.488434860933205 6.319317159531863 1 0 0
191 1 1.6719983688557194 10.907853669390093 7.903135005269473 0 0 0
182 1 3.2507229692723674 12.48130209810416 6.307665571985078 0 0 0
121 1 4.83700829716303 10.908705633806804 7.885770394853961 0 0 0
9 1 6.443506817963629 12.479053339266137 6.302779031725789 0 -1 0
78 1 0.0856268448871026 15.656210950949086 6.3206379064629905 1 -1 0
97 1 1.6700878452151537 14.071190023546055 7.903038712976566 0 0 0
196 1 3.246910404358168 15.64370301800695 6.308440825204517 0 0 0
80 1 4.817040068276574 14.034316407474419 7.865243552853405 0 -1 0
34 1 6.433816429476232 15.64982437643217 6.308685221393516 0 -1 0
3 1 3.179190735294976 15.576913639857203 0.07432474338440695 0 -1 0
15 1 6.410991038909309 2.9979838831995695 0.007051833985554284 0 0 0
144 1 6.44829329716463 15.63915893473289 0.012237559851218455 0 0 0
127 1 3.183531194231545 6.235829545818195 0.07073383350154146 0 0 0
135 1 6.457536556548675 6.1866214973134515 0.022092430479357456 0 0 0
158 1 6.443972094855107 9.329215716272403 0.009667282951856678 0 0 0
12 1 0.07398705726482858 6.168095170877311 0.0009782040571213457 1 0 -1
1 1 0.07464725446647237 15.647699282553242 0.0010748597976419916 0 -1 0
142 1 3.2496023033632766 12.476948326700303 0.004870500553035839 0 0 0
133 1 3.250920087831653 9.337431318632934 0.004727155725467114 0 0 0
145 1 6.44177687529058 12.478095769216852 0.0061178690808905145 0 0 0
86 1 0.09132222341936934 2.9959294087820285 9.491618219124101 0 0 0
67 1 3.2723382153586207 2.9953940195928315 9.494069173084075 0 0 0
168 1 6.361406550133134 2.990739410303552 9.252687778504402 0 0 0
222 1 0.090830683566679 6.159430347805993 9.48828653795099 0 0 0
178 1 3.258335412750372 6.160240889005287 9.488005968102597 0 0 0
98 1 6.305632759555356 6.209411650765051 9.379062415851724 0 0 0
203 1 0.08834077461017686 9.326000751605681 9.485683396818422 1 0 0
248 1 3.25642744558269 9.3266571414444 9.486116388118049 0 0 0
209 1 6.413350986934823 9.351553928715598 9.458953354788601 0 0 0
216 1 0.08836390513752655 12.48913208808506 9.485615203078599 0 0 0
218 1 3.257146978297137 12.488950315857313 9.486323986759894 0 0 0
220 1 6.419049336863072 12.469427600959566 9.465331207532264 0 0 0
24 1 0.09138148771719652 15.657023411721157 9.488600282058535 0 -1 -1
76 1 3.2584780679651377 15.655970191542169 9.488612240150536 0 -1 0
50 1 6.32006724039575 15.603048292604573 9.384827830849211 0 0 0
77 1 1.6909941546488148 1.4148425007190675 11.072412137896485 0 0 0
79 1 4.9394738908701745 1.4350307043929986 11.084572906539757 0 0 0
187 1 1.6905389713012162 4.576035329400792 11.072521421891924 0 0 0
87 1 0.08913336780494388 2.9958365914164022 12.653674863889238 0 0 0
102 1 3.2440557284002347 2.9951242824322355 12.677358970436028 0 0 0
140 1 4.935531734376924 4.559418722924151 11.08482933036239 0 0 0
5 1 5.946421344194248 2.9852641196022027 13.133359642856608 0 0 -1
55 1 7.670315326078473 3.0397893882703424 11.41720154192431 0 0 0
125 1 0.085925291511695 6.161874529473663 12.651229116733123 1 0 0
201 1 1.6722765340612131 7.746443355156587 11.066697039306575 0 0 0
123 1 4.857437966091826 7.745990276800091 11.07112616507893 0 0 0
113 1 3.242681393984769 6.173713149233016 12.64231051807605 0 0 0
129 1 6.379858233932516 6.172310447396491 12.708271757109513 0 0 0
231 1 0.08619900435941721 9.326068256303566 12.65109710996094 0 0 0
233 1 3.2546552185426627 9.32857742016524 12.653376896710508 0 0 0
25 1 6.414085002918421 9.347260778169062 12.675704145197086 0 0 -1
190 1 1.6721882877118202 10.907606965366544 11.068885877299556 1 0 0
208 1 0.08637500825311283 12.48874319343008 12.651259031028157 0 0 0
200 1 4.843128212120063 10.9076859343866 11.068975672865323 0 0 0
143 1 3.25510087526429 12.486371159846904 12.652991155427602 0 0 -1
245 1 6.419454639877744 12.474057847501554 12.668784401811608 0 0 0
217 1 1.6715926139852042 14.068564086531584 11.066252889322845 0 0 0
223 1 0.08606881795667863 15.654154062341915 12.651265612312567 1 -1 0
105 1 4.855175066677716 14.07133935864774 11.070550840723387 0 -1 0
81 1 3.2400222766712714 15.64040772771151 12.640012978541778 0 0 0
244 1 6.375600489413339 15.638296674624584 12.709752959701948 0 0 0
111 1 1.6585938242543437 1.4010728804669303 14.248449503736639 0 0 0
31 1 4.699863576517495 1.1892922980784288 14.384696660673665 0 1 0
110 1 1.658944751769956 4.589293918286766 14.248285147853464 1 0 0
2 1 0.08605441734881171 2.9957427994552908 15.823302188698072 1 0 0
13 1 3.263552151474518 2.996710830630396 15.814124873469359 0 0 -1
114 1 4.715788659862304 4.799665767700215 14.384703317840064 0 0 0
27 1 4.826903239996506 14.044500472875692 14.260395680499432 0 0 0
122 1 1.6657524929253131 7.749611489188545 14.237733965945779 0 0 0
234 1 4.837508376317793 10.908075688241857 14.249451527651294 0 0 0
235 1 4.828352597151922 7.7684495031883225 14.259845391997255 0 0 0
150 1 0.08218569751795321 12.4861540387949 15.820183421340586 1 0 -1
242 1 1.6654105615025854 14.065635422101654 14.237651083081243 0 0 0
141 1 0.0821475056121868 9.3290173645225 15.82088297366978 0 0 -1
49 1 1.668215268931507 10.907359564279487 14.236314998878807 0 0 -1
146 1 8.016958487133449 1.4152002164553716 1.5548707076479755 0 1 0
8 1 11.190835247742564 1.4133172292057363 1.5768201918748173 0 0 0
106 1 14.364635628270014 1.4119597128372907 1.5790057127246735 0 1 0
17 1 8.017779606535068 4.582268884184128 1.556768763659426 0 0 0
243 1 11.19127390456485 4.583353534971325 1.5776196458839125 0 0 0
225 1 14.363163908993862 4.58050326325123 1.5796651018104846 0 1 1
128 1 8.043864253610904 7.769338783135047 1.599006507363349 0 0 0
229 1 11.17221539598469 7.767373070428701 1.6025896855071018 0 0 1
130 1 14.35818505119173 7.746938577061152 1.5807647605192399 0 0 0
136 1 8.040492802496143 10.885987896209118 1.5977797647135032 0 0 0
137 1 11.171720810916009 10.886434093737924 1.5986909329544523 0 0 0
164 1 14.363832373660461 10.90883864682384 1.5776122979564071 0 0 0
112 1 8.022940765555836 14.062875483424316 1.5756067854219793 0 0 0
224 1 11.191906424331176 14.065427937977601 1.5773266950392943 0 -1 0
101 1 14.36048978587559 14.066516255833621 1.5825307031924205 -1 -1 1
54 1 8.020179509499478 1.4123437641199392 4.735935799793302 0 0 0
44 1 11.19172028113822 1.4148325658323995 4.73227323889582 0 0 0
56 1 14.366572090940346 1.4120466686196103 4.736082109810716 -1 0 0
42 1 9.60048254760719 2.9946298673230185 3.1507204656738326 0 0 0
64 1 8.02057896158644 4.584798386899458 4.736846845558479 0 0 0
36 1 12.77716124132034 2.9972805476822537 3.1552978776016767 -1 0 0
59 1 11.19227381068507 4.582138395808186 4.730877025210509 0 0 0
65 1 14.365057998413555 4.580155967342429 4.73516048765415 0 0 0
88 1 9.602533369296001 6.14095819092156 3.1514069510142275 0 0 0
161 1 8.040233462204318 7.764877704104708 4.71443836178968 0 0 0
35 1 12.768683739948882 6.1702271651863745 3.155932206459392 0 0 0
181 1 11.17633040992659 7.76975667404313 4.697475504542768 0 0 0
155 1 14.362424969341088 7.741530500509151 4.735570334475779 0 0 0
154 1 12.801766759125194 9.328600006846454 3.152471548074723 0 0 0
66 1 9.60570056045142 12.506485336819255 3.1537111409532725 0 0 0
172 1 8.040814404699464 10.885933118360343 4.709975839980932 0 0 0
162 1 11.173426564210631 10.886128922553139 4.705476998968653 0 0 0
138 1 12.769027254190176 12.47849602510847 3.1529767270285536 0 0 0
165 1 14.369800609862214 10.910220448003225 4.728723095897944 0 0 0
32 1 9.603162275479928 15.658524004047035 3.1506428270755786 0 -1 0
171 1 8.021350664683387 14.065479863591795 4.735096735049502 0 0 0
103 1 12.77681071362395 15.654538841255437 3.1565426220828035 -1 -2 0
30 1 11.196854248849132 14.064381194475303 4.725065519184676 0 0 0
197 1 14.36559118929957 14.072952051660023 4.734709251751277 0 -1 0
16 1 14.3767566922998 14.068234527412535 7.89625058438138 0 0 0
91 1 11.220842193220957 1.4297410945682323 7.873990183195728 0 0 0
239 1 14.371537131072763 1.4148966777110885 7.9035270141690805 0 0 0
90 1 9.599933919575099 2.9980898972700327 6.323627465492337 0 0 0
199 1 11.254495675923827 14.01205581024182 7.835378898922242 0 0 0
60 1 12.792550438889949 2.994780119475994 6.305414655707536 0 0 0
99 1 11.227836868095633 4.556177711616969 7.864342040667614 0 0 0
206 1 14.370660996907365 4.577767111908388 7.901150493527546 0 0 0
179 1 8.021892802763997 7.749920264298653 7.904349122819822 0 0 0
175 1 9.617902106630922 6.180989593290565 6.291660020580104 0 0 0
92 1 12.779392686123638 6.168793558876228 6.302194701121979 0 0 0
189 1 11.26899792112955 7.8136744810060454 7.819914035294236 0 0 0
43 1 14.377484323854357 7.747851824744599 7.894715479338863 0 0 0
118 1 9.6073329201011 9.327841185560684 6.323272605730703 0 0 0
194 1 12.797804146316322 9.34740288133746 6.277728762692164 0 0 0
184 1 9.608362162078635 12.475629546168216 6.296736395897825 0 0 0
193 1 8.02247882387755 10.907477381254479 7.885863041828748 0 0 0
163 1 12.79486478859175 12.468634711680663 6.286004985714072 0 0 0
214 1 11.213380864053045 10.910303356489994 7.874190617616747 0 0 0
195 1 14.372117602879408 10.906921635327917 7.898827820974985 0 0 0
69 1 9.616156298924446 15.646076030904148 6.303093832561717 0 -1 0
198 1 8.023897389916229 14.06297782089102 7.9044113563081355 0 0 0
33 1 12.785961649279555 15.65400788443373 6.312225545021092 0 -1 0
28 1 9.605553178070325 6.173237415625056 0.007543693935049832 0 0 0
21 1 12.781292194020756 6.179785474996675 0.01466752027757011 -1 0 0
250 1 12.789402130307561 15.642514268099449 0.0064169361160359446 0 0 1
139 1 12.781139232073928 9.336455884907178 0.015968539184670737 0 0 0
147 1 9.605269787270965 12.477296370497783 0.007674559902801972 0 0 0
148 1 12.781945991590167 12.47333045095372 0.012208090550842213 0 0 0
10 1 12.78820894704096 2.9958819441403812 0.0032856674104646544 0 0 0
53 1 9.583777470153455 3.0008432947900077 9.509063582185362 0 -1 0
94 1 12.774768388200108 2.9961543038989373 9.491833048762794 0 0 0
104 1 9.80068282727233 6.26306903912664 9.287622905942909 0 0 0
100 1 12.794227033001286 6.16956857992772 9.472389322562446 0 0 0
119 1 9.635299556277134 9.355132510301187 9.456432306009617 0 0 0
73 1 12.789088965887531 9.32848088117169 9.480754740437943 0 0 0
221 1 9.629516700456673 12.465313375644827 9.46011215416226 0 0 0
213 1 12.7893178327035 12.486977581164156 9.481181027286501 0 0 0
39 1 9.774507295193274 15.561545303536356 9.320127715933882 0 0 0
84 1 12.795828658741627 15.647756011971687 9.475319176305412 0 -1 0
107 1 8.113266986535043 0.7092215794706013 10.975745607235405 0 0 0
120 1 11.180868144926785 1.387222219269545 11.053619319793773 0 0 0
188 1 14.36826184251864 1.4121644943582468 11.068654932559145 0 0 0
20 1 9.83729805393624 2.9927585066714184 12.724957740123063 0 0 0
74 1 8.137613032686412 5.3523818610236225 10.958769399337925 0 0 0
23 1 12.78913799886725 2.9958819375985084 12.65223392177011 0 0 0
93 1 11.177556624729801 4.606719624694453 11.054216880809005 0 0 0
96 1 14.366822892869148 4.5794791191467565 11.06840588210731 -1 0 0
151 1 8.021796979099513 7.947288416291238 11.066940210641606 1 0 0
124 1 9.715607784620525 6.212893466393167 12.788306105212545 0 0 0
204 1 11.18350212063881 7.749657912459301 11.067218102201902 0 0 0
183 1 12.789809922722839 6.1659466639708835 12.655139673622529 0 0 1
89 1 14.366259785872412 7.7447285082722965 11.06726447834878 0 0 0
237 1 9.631087198803348 9.352206912842524 12.673997335722813 0 0 0
230 1 12.786364413147808 9.32800716991494 12.652751415854453 0 0 0
211 1 8.022289698020174 10.907332105053959 11.066655759110349 0 0 0
247 1 9.625149069798411 12.468717953494917 12.669910370338352 0 0 0
205 1 11.202968855577325 10.907757792940052 11.06627409655156 0 0 0
6 1 12.78678242299584 12.486849769476867 12.65236888607285 0 0 0
215 1 14.369969473138047 10.90748794072789 11.067806902304495 0 0 0
82 1 8.024142659216597 13.917680427338304 11.065561901898699 0 -1 0
7 1 9.708698643438858 15.603260073337324 12.764986729650534 0 -1 -1
249 1 11.189756350570136 14.063825217799025 11.066611710168527 0 0 0
58 1 12.791053650986495 15.650534653100774 12.653396505725679 0 0 0
108 1 14.36802757425799 14.070705794102713 11.067542660397152 0 0 0
219 1 8.004560136377597 1.435449654329968 14.141768399221975 0 0 0
85 1 11.242153064952777 1.3874480814451102 14.284380421742307 0 0 0
228 1 14.372192488709171 1.4106985520676447 14.239261528325162 0 0 0
18 1 9.597951103328729 2.997900379930828 15.805869040707572 0 0 -1
153 1 8.00526413887906 4.561094859812076 14.148518103751938 0 0 0
117 1 11.242949016303758 4.600086086213835 14.288926069969584 0 0 0
149 1 8.036737438995054 4.607727586213148 7.9176812663993825 0 0 -1
95 1 14.3704721044516 4.581638732685892 14.240945513297065 0 0 0
241 1 14.369101339602928 14.066504474569832 14.23884703650879 0 0 0
202 1 8.018946215541353 7.74654502609895 14.232414477974821 0 0 0
173 1 11.232265769529125 7.782928364514033 14.278866859492533 0 0 0
115 1 11.226017295826832 14.033879042474663 14.270940065553797 0 0 0
226 1 14.369432132107177 7.748413455802072 14.239320890467429 -1 0 0
29 1 9.60532837822372 9.32673359183619 15.8066606313902 0 0 0
109 1 9.603585555111506 15.654038941722977 15.81954706931253 0 -1 0
236 1 8.020221640891869 10.908183764470989 14.246474729405248 0 0 0
246 1 8.020003881877598 14.069968783413671 14.22864849693176 0 0 0
238 1 11.206804638074603 10.909757814442315 14.254323866677636 0 0 0
240 1 14.367311894526294 10.906692381560324 14.236784802985746 0 0 0
68 1 8.036931495477589 1.386616579313031 7.9160439950316315 0 0 0

Velocities

11 0 0 0
4 0 0 0
180 0 0 0
14 0 0 0
131 0 0 0
132 0 0 0
207 0 0 0
134 0 0 0
46 0 0 0
83 0 0 0
52 0 0 0
185 0 0 0
37 0 0 0
38 0 0 0
116 0 0 0
152 0 0 0
40 0 0 0
126 0 0 0
157 0 0 0
47 0 0 0
212 0 0 0
48 0 0 0
156 0 0 0
22 0 0 0
160 0 0 0
166 0 0 0
176 0 0 0
170 0 0 0
232 0 0 0
45 0 0 0
26 0 0 0
167 0 0 0
169 0 0 0
192 0 0 0
159 0 0 0
51 0 0 0
227 0 0 0
70 0 0 0
71 0 0 0
57 0 0 0
72 0 0 0
41 0 0 0
75 0 0 0
186 0 0 0
62 0 0 0
210 0 0 0
63 0 0 0
61 0 0 0
177 0 0 0
19 0 0 0
174 0 0 0
191 0 0 0
182 0 0 0
121 0 0 0
9 0 0 0
78 0 0 0
97 0 0 0
196 0 0 0
80 0 0 0
34 0 0 0
3 0 0 0
15 0 0 0
144 0 0 0
127 0 0 0
135 0 0 0
158 0 0 0
12 0 0 0
1 0 0 0
142 0 0 0
133 0 0 0
145 0 0 0
86 0 0 0
67 0 0 0
168 0 0 0
222 0 0 0
178 0 0 0
98 0 0 0
203 0 0 0
248 0 0 0
209 0 0 0
216 0 0 0
218 0 0 0
220 0 0 0
24 0 0 0
76 0 0 0
50 0 0 0
77 0 0 0
79 0 0 0
187 0 0 0
87 0 0 0
102 0 0 0
140 0 0 0
5 0 0 0
55 0 0 0
125 0 0 0
201 0 0 0
123 0 0 0
113 0 0 0
129 0 0 0
231 0 0 0
233 0 0 0
25 0 0 0
190 0 0 0
208 0 0 0
200 0 0 0
143 0 0 0
245 0 0 0
217 0 0 0
223 0 0 0
105 0 0 0
81 0 0 0
244 0 0 0
111 0 0 0
31 0 0 0
110 0 0 0
2 0 0 0
13 0 0 0
114 0 0 0
27 0 0 0
122 0 0 0
234 0 0 0
235 0 0 0
150 0 0 0
242 0 0 0
141 0 0 0
49 0 0 0
146 0 0 0
8 0 0 0
106 0 0 0
17 0 0 0
243 0 0 0
225 0 0 0
128 0 0 0
229 0 0 0
130 0 0 0
136 0 0 0
137 0 0 0
164 0 0 0
112 0 0 0
224 0 0 0
101 0 0 0
54 0 0 0
44 0 0 0
56 0 0 0
42 0 0 0
64 0 0 0
36 0 0 0
59 0 0 0
65 0 0 0
88 0 0 0
161 0 0 0
35 0 0 0
181 0 0 0
155 0 0 0
154 0 0 0
66 0 0 0
172 0 0 0
162 0 0 0
138 0 0 0
165 0 0 0
32 0 0 0
171 0 0 0
103 0 0 0
30 0 0 0
197 0 0 0
16 0 0 0
91 0 0 0
239 0 0 0
90 0 0 0
199 0 0 0
60 0 0 0
99 0 0 0
206 0 0 0
179 0 0 0
175 0 0 0
92 0 0 0
189 0 0 0
43 0 0 0
118 0 0 0
194 0 0 0
184 0 0 0
193 0 0 0
163 0 0 0
214 0 0 0
195 0 0 0
69 0 0 0
198 0 0 0
33 0 0 0
28 0 0 0
21 0 0 0
250 0 0 0
139 0 0 0
147 0 0 0
148 0 0 0
10 0 0 0
53 0 0 0
94 0 0 0
104 0 0 0
100 0 0 0
119 0 0 0
73 0 0 0
221 0 0 0
213 0 0 0
39 0 0 0
84 0 0 0
107 0 0 0
120 0 0 0
188 0 0 0
20 0 0 0
74 0 0 0
23 0 0 0
93 0 0 0
96 0 0 0
151 0 0 0
124 0 0 0
204 0 0 0
183 0 0 0
89 0 0 0
237 0 0 0
230 0 0 0
211 0 0 0
247 0 0 0
205 0 0 0
6 0 0 0
215 0 0 0
82 0 0 0
7 0 0 0
249 0 0 0
58 0 0 0
108 0 0 0
219 0 0 0
85 0 0 0
228 0 0 0
18 0 0 0
153 0 0 0
117 0 0 0
149 0 0 0
95 0 0 0
241 0 0 0
202 0 0 0
173 0 0 0
115 0 0 0
226 0 0 0
29 0 0 0
109 0 0 0
236 0 0 0
246 0 0 0
238 0 0 0
240 0 0 0
68 0 0 0
