LAMMPS data file via write_data, version 22 Jul 2025, timestep = 2214, units = metal

250 atoms
1 atom types

-0.044589913443626755 15.870567913443608 xlo xhi
0 15.825978000000001 ylo yhi
0 15.825978000000001 zlo zhi

Masses

1 183.841

Atoms # atomic

2 1 1.6116330965338295 1.6396144993565487 1.5568775288104717 0 0 0
4 1 4.783467490943103 1.6322928111984605 1.532138712543055 0 0 0
12 1 1.6025783104463902 4.795065678254596 1.5533687012625448 0 0 0
14 1 4.784078784745758 4.786894751855089 1.6381436298144676 0 0 0
13 1 3.1833135474381473 3.2130279209221753 0.014679204858450416 0 0 0
128 1 7.178592327255158 7.173488727266304 0.7363841424945554 0 0 0
126 1 1.5953071784630595 7.965645991461817 1.538872375812068 0 0 0
158 1 4.730515323599391 7.933825663544313 1.5111128206858047 0 0 0
132 1 1.6088001002539332 11.145838284528391 1.5483270037763188 0 0 0
134 1 4.763916037523163 11.140977358285483 1.5405047147003554 0 0 0
142 1 1.6180798315914051 14.316131362170019 1.5513363014573749 0 0 0
144 1 4.782270417283453 14.317627462569238 1.552592994053034 0 0 0
26 1 0.03252866424035529 0.07223490483432246 3.116078016745007 0 0 0
27 1 1.5900350885024106 1.649264160130055 4.702785467986258 0 0 0
28 1 3.2211937719222297 0.08259285214618714 3.1455493192490165 0 0 0
30 1 6.358040446783365 0.0816247874476272 3.1472778224059477 0 0 0
37 1 1.615440731898084 4.802903082133728 4.705628814464352 0 0 0
36 1 0.018521060053681777 3.2293591612190418 3.12695165414185 0 0 0
38 1 3.2132876236343115 3.197675304370317 3.1656786041982166 0 0 0
39 1 4.800670782722191 4.8398368073783145 4.71901469587515 0 0 0
40 1 6.360461347382917 3.1949646968521646 3.157997436271957 0 0 0
180 1 0.014285648494991166 6.38754759347217 3.127288534045379 0 0 0
47 1 3.189660425122175 6.384451220073214 3.1300260608522046 0 0 0
48 1 6.406066598893161 6.409258358710787 3.1673780272907854 0 0 0
151 1 1.6081649607551676 7.971702690756731 4.708091495812636 0 0 0
156 1 0.026506582321587986 9.558723978021048 3.13333829610855 0 0 0
152 1 4.795815780747431 7.971438675490363 4.716445242600536 0 0 0
22 1 3.188623613442276 9.54992191065484 3.122732568384633 0 0 0
160 1 6.3196012620896544 9.532137219343197 3.106487692163322 0 0 0
166 1 0.05077490128668128 12.759774716362958 3.1594009973227815 0 0 0
157 1 1.6226246327294886 11.144232000660482 4.715426361754101 0 0 0
168 1 3.200527232499439 12.731045388684926 3.131201807970185 0 0 0
170 1 4.788843174052619 11.1256375079797 4.714534498073096 0 0 0
45 1 6.359856702430119 12.72909573124283 3.1252981501480104 0 0 0
167 1 1.6505391780236205 14.339352322253097 4.731920801547265 0 0 0
169 1 4.794837490057101 14.286981591748182 4.709034457676915 0 0 0
51 1 0.16410237358016366 0.19660195857663265 6.437522715607589 0 0 0
66 1 1.657350803272393 1.6843120280081554 7.885825021660182 0 0 0
67 1 4.806405722886074 1.6440487384515199 7.88306351625333 0 0 0
52 1 3.2537880788055116 0.09496985502341294 6.271972310685644 0 0 0
53 1 6.365649371064123 0.07817373850879787 6.26805371764845 0 0 0
71 1 1.6082516048098316 4.814766547672727 7.854320672286888 0 0 0
56 1 0.024807518150780056 3.2484502605587786 6.2951787105645645 0 0 0
72 1 4.788412926516931 4.79815963384756 7.832833842418467 0 0 0
57 1 3.220596393550298 3.20668541370214 6.2490509227453375 0 0 0
58 1 6.364289197039704 3.2115800889276893 6.261685525741528 0 0 0
61 1 0.012397939393015315 6.3928733115591365 6.286585063168291 0 0 0
62 1 3.199737557504826 6.387270046864919 6.2822116206339595 0 0 0
63 1 6.402575861146729 6.410162506655205 6.308876533406301 0 0 0
186 1 1.599709861625513 7.973289360775969 7.866403072650698 0 0 0
176 1 0.024449831401640112 9.550952221525838 6.298677280398335 0 0 0
177 1 3.2057592753131527 9.552985664889531 6.288176124120022 0 0 0
187 1 4.764846490748982 7.968403891082002 7.8631801875280525 0 0 0
178 1 6.397933471804246 9.530230526077096 6.308569537105976 0 0 0
181 1 0.06047486307361779 12.724855449029063 6.319649980984609 0 0 0
191 1 1.6200296071266451 11.130376781049563 7.877667591608387 0 0 0
182 1 3.215026276273698 12.724086371035872 6.295693685402416 0 0 0
192 1 4.804735850682226 11.12005864534086 7.869532545062082 0 0 0
183 1 6.377236588280803 12.716560940045593 6.291859253872683 0 0 0
196 1 1.6423358132490322 14.305882617124466 7.876677764692537 0 0 0
80 1 4.800946657075853 14.30456671210415 7.8603889153144175 0 -1 0
76 1 -0.012501578862647224 0.032783557708619196 9.432173181998689 0 0 0
78 1 3.2034174638650614 0.041831364499092784 9.437736171828451 0 0 0
68 1 6.384828645034699 0.04592640228645335 9.440514090644898 0 0 0
86 1 -0.011290449898379967 3.2260755023246963 9.437685457274684 0 0 0
88 1 3.150506210381744 3.1821630084676062 9.385399636589304 0 0 0
90 1 6.386455578805974 3.2175550235136683 9.430528152577658 0 0 0
96 1 -0.004711234660977382 6.394693005766873 9.442181010620057 0 0 0
97 1 3.182235663327635 6.39341069893512 9.430682421584992 0 0 0
98 1 6.371920029874862 6.384738610424884 9.40335061465898 0 0 0
206 1 0.009478847870135655 9.55178354352185 9.455525350959231 0 0 0
208 1 3.2020083875868908 9.549655669621245 9.45003107269637 0 0 0
210 1 6.394889124845777 9.524702369547192 9.430695238878476 0 0 0
216 1 0.017371115614058064 12.706445636992711 9.458010424710046 0 0 0
218 1 3.206532242251359 12.70749828850159 9.450658436684085 0 0 0
220 1 6.3808853393484 12.70434307334003 9.449795294660325 0 0 0
77 1 1.4768486404994867 1.5149159396270317 10.909182549009634 0 0 0
101 1 0.002128091361464 0.051694311807743844 12.62016833433858 0 0 0
79 1 4.7909670122512775 1.6076491301671625 11.008649382767834 0 0 0
103 1 3.1736184103746994 0.03361087785716983 12.595452560786583 0 0 0
219 1 6.3728935273289355 0.04594838902723651 12.610020069843506 0 0 0
111 1 -0.02282850710759637 3.2017482224410947 12.593880213789172 0 0 0
87 1 1.5555933230090404 4.8074896381746015 10.99918551240542 0 0 0
89 1 4.652977760528142 4.67362451516226 10.855123263041055 0 0 0
113 1 2.9340534896449486 2.97448188626303 12.337473231843768 0 0 0
115 1 6.396572321037785 3.1907616516756674 12.587198360230873 0 0 0
121 1 -0.0073332609663289035 6.384195090107834 12.609178088620494 0 0 0
122 1 3.1469619574638203 6.394982654377357 12.579718835225579 0 0 0
123 1 6.066354940806067 6.079400398634774 12.412139530613992 0 0 0
201 1 1.5895215158297198 7.974395967481554 11.022490285826022 0 0 0
231 1 0.006489271522822201 9.551356825905769 12.616952394785415 0 0 0
233 1 3.1864400013723477 9.554847425203054 12.606900300917909 0 0 0
202 1 4.78621229958219 7.963097835078296 11.01399428912116 0 0 0
203 1 6.371963314287877 9.578738399400258 12.614300875015429 0 0 0
207 1 1.6033965480866677 11.129600200347706 11.034360258456264 0 0 0
241 1 0.009120777119201827 12.712445428629461 12.619240830302077 0 0 0
209 1 4.793270916869939 11.122463991175538 11.022978021533559 0 0 0
243 1 3.1933151214198188 12.711010180117098 12.613038152283474 0 0 0
245 1 6.374762910844404 12.720336517315141 12.61262980537379 0 0 0
217 1 1.596960207816074 14.277695097096423 11.027661427990022 0 0 0
105 1 4.786874232993498 14.287724336387688 11.02695766562546 0 -1 0
1 1 0.017065289366448234 0.06510672011018016 15.78007322602741 0 0 -1
102 1 1.592629247164012 1.6322664704446788 14.20430211881432 0 0 0
3 1 3.190383893283495 0.056408766287645 15.787280637435016 0 0 -1
104 1 4.753230963338652 1.6146041103290991 14.169220420048159 0 0 0
5 1 6.368201711390078 0.0570382840400551 15.785239056627885 0 0 -1
112 1 1.569244248023333 4.769892960830447 14.169560461679493 0 0 0
11 1 0.007324812658716531 3.217803953557512 15.784003627216174 0 0 -1
114 1 4.3522209840934005 4.371061306841945 13.783025228234088 0 0 0
15 1 6.346830760624771 3.1723776116117315 15.76831936112017 0 0 -1
21 1 0.007854460476419202 6.3787713674555855 15.780848267259763 0 0 -1
127 1 3.141427141656034 6.352836710936171 15.757635958074973 0 0 -1
23 1 5.745078227497557 5.759421288267851 15.221165703139194 0 0 -1
228 1 7.51078711851694 7.518275546969858 13.851978095889464 0 0 0
226 1 1.587055409191328 7.964935644320214 14.192151035838432 0 0 0
131 1 0.018634242183267445 9.557689439359937 15.788922401560285 0 0 -1
235 1 4.750039575970474 7.988558434680367 14.181310154013717 0 0 0
133 1 3.177969232615099 9.551831641506196 15.778231241381121 0 0 -1
135 1 6.347697842639724 9.58495688569903 15.784487346930717 0 0 -1
232 1 1.6013030420965628 11.135288785208258 14.199939151257293 0 0 0
141 1 0.02221015688989285 12.725163281450047 15.783975180652032 0 0 -1
234 1 4.777710341121381 11.146737865165749 14.196914752090601 0 0 0
143 1 3.192204157218303 12.724541551757905 15.785213496407538 0 0 -1
145 1 6.366614480812384 12.74234581609655 15.786115968132236 0 0 -1
242 1 1.6014664042394557 14.297974878974566 14.199695502397232 0 0 0
244 1 4.778444208624065 14.301360229706374 14.196482973077925 0 0 0
6 1 7.95325296286661 1.6344942266379536 1.5519654088418533 0 0 0
8 1 11.154009205662186 1.6452792692431593 1.5496447302411018 0 0 0
10 1 14.34008147078654 1.6466600749593505 1.5457976355507923 0 0 0
16 1 7.927106875111747 4.736760324405245 1.5272153453246433 0 0 0
18 1 11.153229961488014 4.784971604161606 1.5449117500822847 0 0 0
20 1 14.33840503702353 4.802358514962815 1.543735271810237 0 0 0
55 1 8.593981538069382 8.598317362919296 2.100799447617157 0 0 0
137 1 10.36528485081758 10.36423431911308 0.8298508886834557 0 0 0
129 1 11.180894612380488 7.930912080878186 1.5464310702713941 0 0 0
130 1 14.35041234077573 7.97211598875165 1.5492222809577827 0 0 0
136 1 7.918205968749077 11.16541661537497 1.537127737403017 0 0 0
138 1 11.803692036721753 11.795865214246144 2.143436705267346 0 0 0
140 1 14.388909799612195 11.171575836533266 1.5723643446704463 0 0 0
146 1 7.955703237558177 14.327387159044537 1.5543216012151158 0 0 0
148 1 11.175621689187839 14.358251734354733 1.5666767254986702 0 0 0
150 1 14.348386811509494 14.316301127397882 1.491517001270922 0 0 0
159 1 7.989487445597688 1.6443345928377213 4.709826618086063 0 0 0
32 1 9.553906287604294 0.07046703485390711 3.131662543953555 0 0 0
34 1 12.773888981225229 0.08804214311260185 3.1548137500495157 0 0 0
44 1 11.154093217920304 1.654574112958745 4.714416865196043 0 0 0
35 1 14.354023942100312 1.665353277028144 4.731007802555567 0 0 0
41 1 7.959156797077913 4.806888783063167 4.719442171278812 0 0 0
42 1 9.550574188252263 3.2186770194242227 3.1266131451252224 0 0 0
227 1 12.746661169716354 3.22734792769849 3.1328977191837497 0 0 0
43 1 11.140370302071982 4.809409448813251 4.717334404600967 0 0 0
46 1 14.337284439449597 4.810658050669253 4.710689958129502 -1 0 0
49 1 9.539590502663348 6.333133398575163 3.11358077544121 0 0 0
50 1 12.7476166814879 6.374219737276856 3.129870557863992 0 0 0
153 1 7.998655834816036 8.001375287644237 4.7098666941273 0 0 0
118 1 10.016473737162967 10.012900443113779 3.541375458463592 0 0 0
164 1 12.766945701063033 9.53163932282172 3.1405633796707946 0 0 0
154 1 11.143046906144518 7.927123129312698 4.716283056799572 0 0 0
155 1 14.339800689976379 7.966426152469481 4.715023281749203 0 0 0
172 1 9.520976101980189 12.736247678727574 3.1303949658448995 0 0 0
161 1 7.915270864015863 11.124502546101983 4.710004083889613 0 0 0
162 1 11.485297391700874 11.476384906069036 4.918628012072412 0 0 0
174 1 13.206251341911976 13.18066907442827 3.57265856203547 0 0 0
165 1 14.38334017978437 11.123292727204689 4.740591918671222 0 0 0
171 1 7.948970901493072 14.31449292071598 4.7114796478565335 0 0 0
173 1 11.12303440152796 14.335376243711716 4.730784947369203 0 0 0
185 1 14.618131291512645 14.591524637057582 5.001700308324498 0 0 0
54 1 9.5469850484289 0.06650909464298202 6.29688031449015 0 0 0
31 1 7.960858074138797 1.640061184425755 7.85665780708716 0 0 0
33 1 12.730032754753166 0.09356242938263412 6.3171297381542235 0 0 0
69 1 11.137784623836271 1.6552282109477992 7.876112827540127 0 0 0
239 1 14.329170525419153 1.6613814672580074 7.876888776030013 0 0 0
73 1 7.959779149794248 4.7825422961259 7.856551184272012 0 0 0
59 1 9.552960610612526 3.235250430278844 6.288995039860068 0 0 0
60 1 12.738534191758571 3.239427705937301 6.295536557244691 0 0 0
74 1 11.13058599349295 4.8258154960431785 7.870620411775401 0 0 0
75 1 14.325022202401074 4.817633295229394 7.869459779982964 0 0 0
64 1 9.536591745020646 6.410454345372136 6.30872558152533 0 0 0
65 1 12.736001761680182 6.389948366113582 6.2930270242185875 0 0 0
179 1 9.5730238887485 9.568161953999684 6.316848930923148 0 0 0
194 1 12.740315477831995 9.558425688672052 6.291233584607939 0 0 0
189 1 11.165084795762729 7.977246684160642 7.869931826583026 0 0 0
190 1 14.330641732265128 7.97593133826269 7.870935889831849 0 0 0
193 1 7.971021460994893 11.146535496929653 7.869500091470203 0 0 0
184 1 9.54890719647048 12.711853926247034 6.285735562840319 0 0 0
163 1 12.90605322190365 12.878904997465112 6.4630841387721745 0 0 0
222 1 11.158470816978939 11.146065852454237 7.88673729556733 0 0 0
195 1 14.347714481011865 11.130764463680476 7.886930883885934 0 0 0
198 1 7.962826142169809 14.304309734323517 7.862655167623467 0 0 0
199 1 11.13822622871483 14.308452857952853 7.881865083760236 0 0 0
82 1 9.552892493190397 0.057582107926029816 9.452200035520105 0 0 0
84 1 12.724186693653362 0.05992555705273946 9.45613434615369 0 0 0
92 1 9.552350704893355 3.2333502071094586 9.449034489069607 0 0 0
94 1 12.725636598573375 3.232431063080022 9.449981713073356 0 0 0
99 1 9.53028215006888 6.410130386832056 9.42956578425025 0 0 0
100 1 12.724935616676023 6.394533648775173 9.452048451947867 0 0 0
212 1 9.532944342136489 9.52645008308555 9.430926686076091 0 0 0
214 1 12.73174928489454 9.555306627896382 9.456552281065632 0 0 0
223 1 9.556089074229375 12.708841688227475 9.453392315964106 0 0 0
224 1 12.746656015585712 12.724311866445587 9.472620276714446 0 0 0
70 1 14.394253989430771 14.360900252050468 7.944691801329126 0 -1 0
107 1 9.554065727162051 0.05626310722990739 12.616203214817792 0 0 0
81 1 7.970928197812834 1.632670682082253 11.022456323354016 0 0 0
83 1 11.139781220477195 1.6422442205066892 11.033530922090804 0 0 0
109 1 12.732574528501088 0.056766624288202096 12.618135161746219 0 0 0
188 1 14.303498607129022 1.6324389596342197 11.025684481117308 0 0 0
91 1 7.965931460494247 4.8156626403931835 11.017164796368249 0 0 0
117 1 9.560818789519283 3.2209028814560545 12.610052485548989 0 0 0
85 1 12.730001784035588 3.22310763462409 12.612937849579044 0 0 0
93 1 11.135085071770932 4.816800477975118 11.024189324663366 0 0 0
95 1 14.313553660978476 4.806792843285285 11.027272668042807 0 0 0
124 1 9.588552020682688 6.392600873593934 12.621548531980462 0 0 0
125 1 12.742138251136787 6.3897927560443275 12.614884012811547 0 0 0
237 1 9.525746051943976 9.521457265409415 12.592915705124662 0 0 0
175 1 7.92993293302547 7.932622730032534 11.0442789326942 0 0 0
204 1 11.130688689820133 7.971219065474273 11.024302653708729 0 0 0
230 1 12.73748430315974 9.554112486098479 12.619638317367237 0 0 0
205 1 14.322506546788986 7.972998880764722 11.033781408985865 0 0 0
211 1 7.965191565293133 11.116130509624183 11.022576267890333 0 0 0
247 1 9.555678995613048 12.714897580496993 12.617844192918396 0 0 0
213 1 11.133076464322096 11.120447409079517 11.028870403321253 0 0 0
249 1 12.732574455231024 12.710704452420778 12.614063079055265 0 0 0
215 1 14.330021305095968 11.132247342565922 11.039821141248144 0 0 0
221 1 7.967610204292427 14.292095414349076 11.03181178098854 0 0 0
197 1 11.143225869613897 14.297543412579373 11.038122343336095 0 0 0
225 1 14.331388939167203 14.299873869424726 11.048657444038389 0 0 0
7 1 9.55750873246606 0.06847099557418422 15.78905304303297 0 0 -1
106 1 7.961958554603316 1.6295956215598641 14.196008594337703 0 0 0
9 1 12.7439370753757 0.06869857937558162 15.781710614899298 0 0 -1
108 1 11.146737957892318 1.6406030062381134 14.20018321742738 0 0 0
110 1 14.326743987114854 1.639507632199185 14.198663412669578 0 0 0
116 1 7.992731309164557 4.781770448565106 14.194401610583682 0 0 0
17 1 9.556826398648683 3.2074564134848127 15.783282844785296 0 0 -1
119 1 11.161591211925224 4.801076849165226 14.200055672171304 0 0 0
19 1 12.743629559930508 3.2205084296129747 15.785476961510017 0 0 -1
120 1 14.328760425998997 4.799595617737246 14.195934698190772 0 0 0
24 1 9.599518181259478 6.362324670078123 15.794192562425643 0 0 -1
25 1 12.763317604335466 6.3837397247859435 15.788662952697333 0 0 -1
29 1 8.966572256120847 8.96083195551251 15.23669130410209 0 0 0
229 1 11.210843580546017 7.98373614105701 14.220748506544851 0 0 0
139 1 12.791272080090826 9.59131664797496 15.824225172879334 0 0 -1
200 1 14.339990427208754 7.974082614086727 14.205569355638081 0 0 0
236 1 7.972687153957554 11.19321092874082 14.215229381409245 0 0 0
147 1 9.585897949927743 12.77462793391984 15.81947642972891 0 0 -1
238 1 11.116449567187933 11.10496501802806 14.180854293624417 0 0 0
149 1 12.745391227480523 12.72469781743761 15.706072791533144 0 0 -1
240 1 14.339053659264332 11.134525188233054 14.199370934472023 0 0 0
246 1 7.966766579253985 14.309146212274898 14.204108769024606 0 0 0
248 1 11.145405704157684 14.30777040323975 14.197108315142078 0 0 0
250 1 14.337613717393976 14.306761626379009 14.188448558704591 0 0 0

Velocities

2 0 0 0
4 0 0 0
12 0 0 0
14 0 0 0
13 0 0 0
128 0 0 0
126 0 0 0
158 0 0 0
132 0 0 0
134 0 0 0
142 0 0 0
144 0 0 0
26 0 0 0
27 0 0 0
28 0 0 0
30 0 0 0
37 0 0 0
36 0 0 0
38 0 0 0
39 0 0 0
40 0 0 0
180 0 0 0
47 0 0 0
48 0 0 0
151 0 0 0
156 0 0 0
152 0 0 0
22 0 0 0
160 0 0 0
166 0 0 0
157 0 0 0
168 0 0 0
170 0 0 0
45 0 0 0
167 0 0 0
169 0 0 0
51 0 0 0
66 0 0 0
67 0 0 0
52 0 0 0
53 0 0 0
71 0 0 0
56 0 0 0
72 0 0 0
57 0 0 0
58 0 0 0
61 0 0 0
62 0 0 0
63 0 0 0
186 0 0 0
176 0 0 0
177 0 0 0
187 0 0 0
178 0 0 0
181 0 0 0
191 0 0 0
182 0 0 0
192 0 0 0
183 0 0 0
196 0 0 0
80 0 0 0
76 0 0 0
78 0 0 0
68 0 0 0
86 0 0 0
88 0 0 0
90 0 0 0
96 0 0 0
97 0 0 0
98 0 0 0
206 0 0 0
208 0 0 0
210 0 0 0
216 0 0 0
218 0 0 0
220 0 0 0
77 0 0 0
101 0 0 0
79 0 0 0
103 0 0 0
219 0 0 0
111 0 0 0
87 0 0 0
89 0 0 0
113 0 0 0
115 0 0 0
121 0 0 0
122 0 0 0
123 0 0 0
201 0 0 0
231 0 0 0
233 0 0 0
202 0 0 0
203 0 0 0
207 0 0 0
241 0 0 0
209 0 0 0
243 0 0 0
245 0 0 0
217 0 0 0
105 0 0 0
1 0 0 0
102 0 0 0
3 0 0 0
104 0 0 0
5 0 0 0
112 0 0 0
11 0 0 0
114 0 0 0
15 0 0 0
21 0 0 0
127 0 0 0
23 0 0 0
228 0 0 0
226 0 0 0
131 0 0 0
235 0 0 0
133 0 0 0
135 0 0 0
232 0 0 0
141 0 0 0
234 0 0 0
143 0 0 0
145 0 0 0
242 0 0 0
244 0 0 0
6 0 0 0
8 0 0 0
10 0 0 0
16 0 0 0
18 0 0 0
20 0 0 0
55 0 0 0
137 0 0 0
129 0 0 0
130 0 0 0
136 0 0 0
138 0 0 0
140 0 0 0
146 0 0 0
148 0 0 0
150 0 0 0
159 0 0 0
32 0 0 0
34 0 0 0
44 0 0 0
35 0 0 0
41 0 0 0
42 0 0 0
227 0 0 0
43 0 0 0
46 0 0 0
49 0 0 0
50 0 0 0
153 0 0 0
118 0 0 0
164 0 0 0
154 0 0 0
155 0 0 0
172 0 0 0
161 0 0 0
162 0 0 0
174 0 0 0
165 0 0 0
171 0 0 0
173 0 0 0
185 0 0 0
54 0 0 0
31 0 0 0
33 0 0 0
69 0 0 0
239 0 0 0
73 0 0 0
59 0 0 0
60 0 0 0
74 0 0 0
75 0 0 0
64 0 0 0
65 0 0 0
179 0 0 0
194 0 0 0
189 0 0 0
190 0 0 0
193 0 0 0
184 0 0 0
163 0 0 0
222 0 0 0
195 0 0 0
198 0 0 0
199 0 0 0
82 0 0 0
84 0 0 0
92 0 0 0
94 0 0 0
99 0 0 0
100 0 0 0
212 0 0 0
214 0 0 0
223 0 0 0
224 0 0 0
70 0 0 0
107 0 0 0
81 0 0 0
83 0 0 0
109 0 0 0
188 0 0 0
91 0 0 0
117 0 0 0
85 0 0 0
93 0 0 0
95 0 0 0
124 0 0 0
125 0 0 0
237 0 0 0
175 0 0 0
204 0 0 0
230 0 0 0
205 0 0 0
211 0 0 0
247 0 0 0
213 0 0 0
249 0 0 0
215 0 0 0
221 0 0 0
197 0 0 0
225 0 0 0
7 0 0 0
106 0 0 0
9 0 0 0
108 0 0 0
110 0 0 0
116 0 0 0
17 0 0 0
119 0 0 0
19 0 0 0
120 0 0 0
24 0 0 0
25 0 0 0
29 0 0 0
229 0 0 0
139 0 0 0
200 0 0 0
236 0 0 0
147 0 0 0
238 0 0 0
149 0 0 0
240 0 0 0
246 0 0 0
248 0 0 0
250 0 0 0
