LAMMPS data file via write_data, version 22 Jul 2025, timestep = 2853, units = metal

250 atoms
1 atom types

-0.044887226303119206 15.870865226303108 xlo xhi
0 15.825978000000001 ylo yhi
0 15.825978000000001 zlo zhi

Masses

1 183.841

Atoms # atomic

2 1 1.6391858688119354 1.6170945478059398 1.5498695409333816 0 0 0
4 1 4.798683630645356 1.6036967055928266 1.5297655366214697 0 0 0
12 1 1.6231772836903466 4.7584632209874895 1.5554630427507734 0 0 0
14 1 4.788101717104473 4.7389604479748 1.6395567277999337 0 0 0
80 1 4.824310689914082 14.27539047750035 7.872143275546918 0 -1 0
128 1 7.314529731516125 7.258116327150074 0.9598496946468172 0 0 0
126 1 1.6171438180235098 7.928572761992891 1.5448367324256538 0 0 0
158 1 4.745386505939664 7.899338685270737 1.5272875406439697 0 0 0
132 1 1.631185285813475 11.1092125353306 1.5539976782911031 0 0 0
134 1 4.789187695028089 11.101673474337248 1.5448940911530193 0 0 0
142 1 1.6409648160996677 14.280020988896165 1.552498651033277 0 0 0
144 1 4.800477323155285 14.283929700852317 1.5578711152572982 0 0 0
26 1 0.05744511827578552 0.048253491648660614 3.06948597981007 0 0 0
27 1 1.603029731689359 1.6094407563723196 4.716697815371519 0 0 0
28 1 3.239134100659862 0.05258157415684463 3.149849593770921 0 0 0
30 1 6.371675031566375 0.05117479949713204 3.151737539787554 0 0 0
37 1 1.6320402954426718 4.764437959647857 4.7172399030563685 0 0 0
36 1 0.03815265731686859 3.1951303071347397 3.1336690514684555 0 0 0
38 1 3.224703847286317 3.1586791251240283 3.166435972800929 0 0 0
39 1 4.804815083001292 4.787696468234184 4.741763431454195 0 0 0
40 1 6.372103414639329 3.152399661185518 3.167881043131545 0 0 0
180 1 0.034298155914674354 6.349489266088419 3.13411312587993 0 0 0
47 1 3.201939754192956 6.344471736663435 3.14093198863502 0 0 0
48 1 6.387307351414677 6.336458215497088 3.226090662836981 0 0 0
151 1 1.624978855994817 7.9374043624934565 4.716317471628581 0 0 0
156 1 0.047187346443177236 9.522321040225405 3.1389075482761997 0 0 0
152 1 4.808406812262482 7.940272702435569 4.728125505476615 0 0 0
22 1 3.2072875938047383 9.515851274035569 3.130132675040349 0 0 0
160 1 6.350590877537876 9.479112434530677 3.0987590866800008 0 0 0
166 1 0.0814443277590937 12.726810368046426 3.163148594251738 0 0 0
157 1 1.6389265158688708 11.1135131292499 4.722498164161374 0 0 0
168 1 3.219881431050804 12.698604292526262 3.1380393661849455 0 0 0
170 1 4.807218259118013 11.089080527626086 4.715873142917877 0 0 0
45 1 6.373145225631945 12.694564828843552 3.1288595475441365 0 0 0
167 1 1.6701839633416127 14.318954212288073 4.744842199721801 0 0 0
169 1 4.810096117232443 14.257549621629117 4.716262898647206 0 0 0
51 1 0.27309903735638014 0.25413454554658216 6.582427194338324 0 0 0
196 1 1.685931946294187 14.271904463813344 7.903113786436805 0 0 0
67 1 4.834957678213578 1.6189789707076963 7.904689577617858 0 0 0
52 1 3.2792559673426287 0.07190403190146132 6.291491529614706 0 0 0
53 1 6.384130946450023 0.04678838176561996 6.277761137149745 0 0 0
71 1 1.6357238394492315 4.787423550196624 7.873232950559003 0 0 0
56 1 0.05248690636085415 3.2130611667647795 6.317083244067506 0 0 0
72 1 4.813817000540829 4.7710786731506944 7.847872855307774 0 0 0
57 1 3.2427559848390723 3.1754002767565965 6.268311353319458 0 0 0
58 1 6.3857775845927724 3.175730767668346 6.274987084557678 0 0 0
61 1 0.03279343713456649 6.357866116796494 6.296649366138589 0 0 0
62 1 3.216983240985152 6.355262417961089 6.293619804469025 0 0 0
63 1 6.42081699608488 6.375885102097839 6.320183839564515 0 0 0
186 1 1.6181429793943019 7.942906073643948 7.875360015398443 0 0 0
176 1 0.03885782799556671 9.519360980813843 6.303394015577557 0 0 0
177 1 3.2203144220947992 9.523683929895833 6.294576658439448 0 0 0
187 1 4.780834018911534 7.940440864099887 7.867685763328085 0 0 0
178 1 6.414067521196556 9.496182466410838 6.311473778595694 0 0 0
181 1 0.0786896062268524 12.693426311454067 6.32819232326387 0 0 0
191 1 1.636275907619802 11.10150131964284 7.884892081438151 0 0 0
182 1 3.2339546077107553 12.694461499026852 6.302396286573037 0 0 0
192 1 4.821917805568603 11.09018238305013 7.874403779087781 0 0 0
183 1 6.38929743844589 12.683533913722831 6.295840438898057 0 0 0
76 1 0.07535686990510748 0.0682016282556245 9.51059454704679 0 0 0
78 1 3.238208346967803 0.021303719608068615 9.46254753110246 0 0 0
68 1 6.408195181272421 0.01693225117832375 9.454005837196105 0 0 0
86 1 0.023928594403882567 3.2034135818860445 9.459590843713256 0 0 0
88 1 3.2351518831926045 3.214215945679805 9.462666048958743 0 0 0
90 1 6.411979437261978 3.193056510513941 9.446427268452435 0 0 0
96 1 0.02054191531544004 6.362960103265604 9.45510533900016 0 0 0
97 1 3.211067179238821 6.365628133805068 9.44622806979451 0 0 0
98 1 6.403559977916017 6.364440985530356 9.402624271299377 0 0 0
206 1 0.024891202825427748 9.525574409542969 9.45932500948865 0 0 0
208 1 3.2167110471467804 9.523541365370344 9.453971182497778 0 0 0
210 1 6.413682879260084 9.49657392706842 9.431695283153127 0 0 0
216 1 0.04784620625124236 12.679563684475832 9.474254255059659 0 0 0
218 1 3.2332958253818056 12.675047350416543 9.464827027418961 0 0 0
220 1 6.402562416225454 12.67253847944715 9.456298754746443 0 0 0
77 1 1.5788827236057332 1.5630089587275027 11.004703159823361 0 0 0
101 1 0.026276710101086554 0.02270684174708435 12.63704691046538 0 0 0
79 1 4.809209027153903 1.5885964943565292 11.032630768778995 0 0 0
103 1 3.2039628232342405 15.825241165572471 12.616405448394266 0 -1 0
219 1 6.395797868546115 0.011213658329570324 12.618223982870768 0 0 0
13 1 3.2080576370239275 3.1886620030622983 15.798563764184973 0 0 -1
87 1 1.5928139143482642 4.774313566545339 11.023235743574208 0 0 0
89 1 4.747770702890871 4.714453471261643 10.945319009832978 0 0 0
113 1 1.5892160402548592 4.747953827251745 14.18224433634612 0 0 0
115 1 6.410960669843805 3.1525528856743343 12.589262820156451 0 0 0
121 1 0.010665934591409899 6.354622036842663 12.616702345063224 0 0 0
122 1 3.1645326713910262 6.357081063261443 12.585064252519647 0 0 0
123 1 6.233705913139895 6.197503502452344 12.422718478367651 0 0 0
201 1 1.606167651481856 7.944810942717643 11.029923303321718 0 0 0
231 1 0.023408836618386514 9.521462673266099 12.623768187382858 0 0 0
233 1 3.2039580164603843 9.520595073708206 12.61277428966265 0 0 0
202 1 4.794980578129345 7.943429025665511 11.007582652920526 0 0 0
203 1 6.395356489120807 9.505106018791713 12.618055738843411 0 0 0
207 1 1.6239690082718388 11.098717761574312 11.043895638156409 0 0 0
241 1 0.02911783973666919 12.68108542484895 12.62984076272423 0 0 0
209 1 4.817164033388388 11.08630672314982 11.032775508425456 0 0 0
243 1 3.215596538068362 12.675502822652039 12.623309567112528 0 0 0
245 1 6.394420207174617 12.679396491187365 12.61755183369507 0 0 0
217 1 1.6259699662250988 14.25200544675018 11.045931100293274 0 0 0
105 1 4.812075383019691 14.255549936385124 11.038906354533738 0 -1 0
1 1 0.03492556326941066 0.031243743338146744 15.780404542119278 0 0 -1
102 1 1.612079735772318 1.5998453977015616 14.21127749160547 0 0 0
3 1 3.2110970560898227 0.023189734951979755 15.792535457780671 0 0 -1
104 1 3.0569536273166737 3.0447970376934403 12.474704339651632 0 0 0
5 1 4.781437021777925 1.5868918214296057 14.179840403481503 0 0 -1
11 1 0.025365133042031456 3.187313209278654 15.789320113453805 0 0 -1
114 1 4.527328409601518 4.49063486646128 13.88208959894862 0 0 0
15 1 6.361695912052653 3.158853299221525 15.770838140290467 0 0 -1
21 1 0.027554765238940276 6.345881368067958 15.78763026504748 0 0 -1
127 1 3.1744154674415386 6.316124720096686 15.762788542276057 0 0 -1
23 1 5.899129761489171 5.870203395216375 15.373999864408534 0 0 -1
228 1 7.6114498950808285 7.568392788140799 14.029250379554625 0 0 0
226 1 1.605978424888626 7.932054199242098 14.199318710752832 0 0 0
131 1 0.039041472723684766 9.52361682637681 15.795503369778418 0 0 -1
235 1 4.7596478256758905 7.939743045987742 14.175215019312263 0 0 0
133 1 3.201234402367257 9.513633761052994 15.783746471705705 0 0 -1
135 1 6.37341667353457 9.535515740693022 15.783860446275987 0 0 -1
232 1 1.620870540493544 11.10034834057109 14.207752049632496 0 0 0
141 1 0.037953284490296474 12.68728908436263 15.791315432964216 0 0 -1
234 1 4.799560406675467 11.101936058710534 14.2006110226178 0 0 0
143 1 3.213726410757183 12.686065984381496 15.79156321989885 0 0 -1
145 1 6.384281885892601 12.70327371030551 15.79015017383549 0 0 -1
242 1 1.6209852758168377 14.261783425232515 14.209857914114082 0 0 0
244 1 4.800822769725887 14.263711507159567 14.20546761797397 0 0 0
146 1 6.386768631234853 0.025729324985536945 15.790630781043989 0 1 -1
111 1 -0.002868797172491206 3.1794601944722025 12.613384659763796 0 0 0
66 1 1.75987459386447 1.726908628563947 7.972111294019264 0 0 0
6 1 7.967444162326932 1.6059649822894746 1.555386814808302 0 0 0
8 1 11.16829571655759 1.6171532752818063 1.5527464703988896 0 0 0
10 1 14.35618579831954 1.6191146508585528 1.5451106258982565 0 0 0
16 1 7.944970476247496 4.701545458835501 1.54409251650085 0 0 0
18 1 11.166149166106505 4.758099194567166 1.5482189374855824 0 0 0
20 1 14.356830809489816 4.7685994901449185 1.5493261363062836 0 0 0
55 1 8.769809137887869 8.711745562778146 2.22773786091637 0 0 0
137 1 10.529201103095975 10.467698847152418 0.9721089473679738 0 0 0
129 1 11.220142186822455 7.909444563974578 1.555513841691115 0 0 0
130 1 14.376533638069565 7.934200127830412 1.5533925801954975 0 0 0
159 1 8.007782473775125 1.609130966198339 4.717486480666466 0 0 0
138 1 11.94500685388854 11.880309229770608 2.3476116331776393 0 0 0
140 1 14.408839443702833 11.13918135865137 1.5859812917811695 0 0 0
199 1 11.16430403353782 14.264253874656134 7.875608312498632 0 0 0
112 1 7.970129060770619 14.300122439589467 1.5575273480518634 0 0 0
148 1 11.19535161496413 14.325965710339121 1.579063334835771 0 0 0
150 1 14.359378748458713 14.275175227400027 1.4801963038734154 0 0 0
222 1 11.185220734001414 11.12027174968441 7.880958062291696 0 0 0
32 1 9.568365910155858 0.04130523821910645 3.134807419780273 0 0 0
34 1 12.791078373340273 0.0737070482377481 3.1549999714183854 0 0 0
44 1 11.17362146420712 1.6205408314413956 4.7208166622835055 0 0 0
35 1 14.380761732956664 1.637904704076012 4.7419577877935 0 0 0
41 1 7.979781929406209 4.765398687038397 4.7326820201223985 0 0 0
42 1 9.567890601163187 3.1847521794759546 3.133350044515727 0 0 0
227 1 12.764615066701175 3.1960894910651376 3.138366059317951 0 0 0
43 1 11.156287508777297 4.774759196245216 4.719831898157935 0 0 0
46 1 14.358820853514795 4.772976992371456 4.720065089059808 -1 0 0
49 1 9.539932378450864 6.306057732028054 3.107745493227912 0 0 0
50 1 12.765990485597603 6.333673190904585 3.1342364111506207 0 0 0
153 1 8.017260505891064 7.966683684637483 4.710905485208356 0 0 0
118 1 10.154840509487373 10.099158543214076 3.6825107424526475 0 0 0
164 1 12.785054657249049 9.483583904293809 3.1354978862080656 0 0 0
154 1 11.150690061639448 7.874988980816141 4.710358679185629 0 0 0
155 1 14.359559810230845 7.923809797938933 4.717150182494282 0 0 0
172 1 9.530009345859446 12.706289512202416 3.1258665875820997 0 0 0
198 1 7.9809391324244965 14.273023573656717 7.869989486277843 0 0 0
162 1 11.606686289823974 11.54198864458785 5.073342186405366 0 0 0
174 1 13.365421966130528 13.29413680262354 3.7047357073691414 0 0 0
165 1 14.389276580366005 11.079530367333872 4.733174667590476 0 0 0
195 1 14.356957072704997 11.111264705728974 7.879846376837903 0 0 0
173 1 11.12891200995814 14.294357507114743 4.721668055885707 0 0 0
185 1 14.786327396259361 14.705536101828349 5.095656918043836 0 0 0
54 1 9.565833355101622 0.029318513651455786 6.30121106800382 0 0 0
31 1 7.983920065310947 1.6056451930244129 7.8665221869535875 0 0 0
33 1 12.746319795280572 0.054883536693141693 6.320740224735244 0 0 0
69 1 11.160633577559404 1.6177437942177402 7.883437528400271 0 0 0
239 1 14.342859199267512 1.6437730829408668 7.901632711942132 0 0 0
73 1 7.984271587272115 4.746078616102968 7.862085290743312 0 0 0
59 1 9.576028489639311 3.19721292724665 6.296448504452013 0 0 0
60 1 12.760141349035456 3.204807173097244 6.303360606916285 0 0 0
74 1 11.153717869675495 4.789538756941442 7.87672030799662 0 0 0
171 1 7.95841333232097 14.282316535653866 4.712420852746819 0 0 0
64 1 9.554888395809975 6.3732118849873105 6.312935447788156 0 0 0
65 1 12.755683614045418 6.3484881381026055 6.2984244187742275 0 0 0
179 1 9.589850938556683 9.531132199778055 6.328659533310887 0 0 0
194 1 12.758315692058998 9.4864084067596 6.290201575829135 0 0 0
189 1 11.18437558287817 7.940249899558441 7.875189502717466 0 0 0
190 1 14.353205285861977 7.941300446771164 7.87905783276041 0 0 0
193 1 7.98765557788883 11.112854008462758 7.873502981022105 0 0 0
184 1 9.532070100741112 12.676580331173184 6.281959027663442 0 0 0
163 1 13.07295583320202 13.000546793665555 6.478036651309323 0 0 0
161 1 7.918121365002997 11.080127917057586 4.7036305120590285 0 0 0
75 1 14.349731613411656 4.785492866773669 7.881449024631316 0 0 0
136 1 7.951496516776013 11.148682134564426 1.5464594627775998 0 0 0
82 1 9.578976301651283 0.020280260137580313 9.45704386946711 0 0 0
84 1 12.749848596094724 0.034981576827143875 9.471035597062908 0 0 0
92 1 9.578916934247957 3.1953710627197363 9.454093217960441 0 0 0
94 1 12.74785293193334 3.2046490158052667 9.463897810108813 0 0 0
99 1 9.554848975045036 6.375388213410701 9.431792058007828 0 0 0
100 1 12.747260346888341 6.362444822703977 9.458688447071543 0 0 0
212 1 9.5593697223178 9.49992581043204 9.432467016315908 0 0 0
214 1 12.752498988671519 9.526263785894205 9.45747089825496 0 0 0
223 1 9.579289431501248 12.67587281617003 9.454553610190846 0 0 0
224 1 12.775842631594829 12.701295476882706 9.475406834793286 0 0 0
70 1 14.489396164314172 14.399747773055783 8.043216296931757 0 -1 0
107 1 9.576668475412719 0.020942220918527633 12.623488849668215 0 0 0
81 1 7.994549776745812 1.5960021823081278 11.030062939029838 0 0 0
83 1 11.162630632977978 1.6099603817548875 11.043003503776958 0 0 0
109 1 12.754340130776017 0.02423340416031109 12.628290154581345 0 0 0
188 1 14.333447211723362 1.6077238862576375 11.043112413616768 0 0 0
91 1 7.995234509244708 4.771190984275716 11.011476415014396 0 0 0
117 1 9.578230948129503 3.1871884063927203 12.61611846076816 0 0 0
85 1 12.74791724388064 3.1929400522822236 12.622402660322125 0 0 0
93 1 11.152410514204353 4.787583772378267 11.03389437316158 0 0 0
95 1 14.336650340520203 4.7778973887761165 11.038102137556503 0 0 0
124 1 9.56799040143793 6.3638987438665575 12.624969971662596 0 0 0
125 1 12.754504158611716 6.356462005345955 12.618996133330482 0 0 0
237 1 9.54602236868983 9.48806329576512 12.603169654397716 0 0 0
175 1 7.9615936840701975 7.912445698243789 11.033474364264066 0 0 0
204 1 11.149588024163744 7.938073970561388 11.02913199870657 0 0 0
230 1 12.756049353476323 9.52166020476475 12.62318966277297 0 0 0
205 1 14.34110943565422 7.942918913898889 11.039268761452023 0 0 0
211 1 7.985152872119399 11.08155428361128 11.02756743403779 0 0 0
247 1 9.575733800005965 12.679807305365344 12.621819654176274 0 0 0
213 1 11.15565966253819 11.090004010155432 11.031656178682361 0 0 0
249 1 12.752716269555693 12.678055771374718 12.623636066028379 0 0 0
215 1 14.350024558619825 11.10402582220595 11.044408797579424 0 0 0
221 1 7.990721633476813 14.256837254433448 11.037983797846824 0 0 0
197 1 11.167443725987706 14.264228288544185 11.04327280540154 0 0 0
225 1 14.35891811276768 14.273969851360052 11.062381567335219 0 0 0
147 1 9.589757946146333 12.746463292767347 15.814280266742971 0 0 -1
106 1 7.980696629375744 1.5980100584843742 14.202897736051048 0 0 0
9 1 12.758516024785587 0.0324819969062518 15.787615159229862 0 0 -1
108 1 11.163870649462192 1.6085763399984152 14.207249278406294 0 0 0
110 1 14.343739646223854 1.6071617061613108 14.207719256032885 0 0 0
116 1 7.993044755724005 4.744505651237131 14.188739877728972 0 0 0
17 1 9.56971760145938 3.1812536553350577 15.78729408778729 0 0 -1
119 1 11.168541958417613 4.771898277315559 14.20349949088503 0 0 0
19 1 12.757371396733072 3.1906176056215543 15.790363741951253 0 0 -1
120 1 14.343668799163384 4.769746488914499 14.203980715189275 0 0 0
24 1 9.60440660871115 6.341123955773171 15.795247800312827 0 0 -1
25 1 12.778296629194296 6.348773082174599 15.792347318973405 0 0 -1
29 1 9.109220871861407 9.05082163146194 15.357256703343788 0 0 0
229 1 11.22261611863322 7.9389741249179675 14.214439408774574 0 0 0
248 1 11.166682089442869 14.27026704620635 14.207961237215713 0 0 0
200 1 14.359380217440055 7.93905296752587 14.208419655123524 0 0 0
236 1 7.9799603860874795 11.14938573593077 14.208648865816254 0 0 0
250 1 14.34825597528299 14.26429764021498 14.204768345459009 0 0 0
238 1 11.13832667200264 11.07381448164119 14.18772293067952 0 0 0
7 1 9.575140594802749 0.036483577458023206 15.794736677545405 0 0 -1
240 1 14.354987667753196 11.104103488205078 14.20990786079859 0 0 0
246 1 7.9840813909578365 14.275331161186964 14.207270354369358 0 0 0
149 1 12.73336473587739 12.659674019932705 15.755678903795951 0 0 -1
139 1 12.820875683356755 9.544096926443677 15.819329311048355 0 0 -1

Velocities

2 0 0 0
4 0 0 0
12 0 0 0
14 0 0 0
80 0 0 0
128 0 0 0
126 0 0 0
158 0 0 0
132 0 0 0
134 0 0 0
142 0 0 0
144 0 0 0
26 0 0 0
27 0 0 0
28 0 0 0
30 0 0 0
37 0 0 0
36 0 0 0
38 0 0 0
39 0 0 0
40 0 0 0
180 0 0 0
47 0 0 0
48 0 0 0
151 0 0 0
156 0 0 0
152 0 0 0
22 0 0 0
160 0 0 0
166 0 0 0
157 0 0 0
168 0 0 0
170 0 0 0
45 0 0 0
167 0 0 0
169 0 0 0
51 0 0 0
196 0 0 0
67 0 0 0
52 0 0 0
53 0 0 0
71 0 0 0
56 0 0 0
72 0 0 0
57 0 0 0
58 0 0 0
61 0 0 0
62 0 0 0
63 0 0 0
186 0 0 0
176 0 0 0
177 0 0 0
187 0 0 0
178 0 0 0
181 0 0 0
191 0 0 0
182 0 0 0
192 0 0 0
183 0 0 0
76 0 0 0
78 0 0 0
68 0 0 0
86 0 0 0
88 0 0 0
90 0 0 0
96 0 0 0
97 0 0 0
98 0 0 0
206 0 0 0
208 0 0 0
210 0 0 0
216 0 0 0
218 0 0 0
220 0 0 0
77 0 0 0
101 0 0 0
79 0 0 0
103 0 0 0
219 0 0 0
13 0 0 0
87 0 0 0
89 0 0 0
113 0 0 0
115 0 0 0
121 0 0 0
122 0 0 0
123 0 0 0
201 0 0 0
231 0 0 0
233 0 0 0
202 0 0 0
203 0 0 0
207 0 0 0
241 0 0 0
209 0 0 0
243 0 0 0
245 0 0 0
217 0 0 0
105 0 0 0
1 0 0 0
102 0 0 0
3 0 0 0
104 0 0 0
5 0 0 0
11 0 0 0
114 0 0 0
15 0 0 0
21 0 0 0
127 0 0 0
23 0 0 0
228 0 0 0
226 0 0 0
131 0 0 0
235 0 0 0
133 0 0 0
135 0 0 0
232 0 0 0
141 0 0 0
234 0 0 0
143 0 0 0
145 0 0 0
242 0 0 0
244 0 0 0
146 0 0 0
111 0 0 0
66 0 0 0
6 0 0 0
8 0 0 0
10 0 0 0
16 0 0 0
18 0 0 0
20 0 0 0
55 0 0 0
137 0 0 0
129 0 0 0
130 0 0 0
159 0 0 0
138 0 0 0
140 0 0 0
199 0 0 0
112 0 0 0
148 0 0 0
150 0 0 0
222 0 0 0
32 0 0 0
34 0 0 0
44 0 0 0
35 0 0 0
41 0 0 0
42 0 0 0
227 0 0 0
43 0 0 0
46 0 0 0
49 0 0 0
50 0 0 0
153 0 0 0
118 0 0 0
164 0 0 0
154 0 0 0
155 0 0 0
172 0 0 0
198 0 0 0
162 0 0 0
174 0 0 0
165 0 0 0
195 0 0 0
173 0 0 0
185 0 0 0
54 0 0 0
31 0 0 0
33 0 0 0
69 0 0 0
239 0 0 0
73 0 0 0
59 0 0 0
60 0 0 0
74 0 0 0
171 0 0 0
64 0 0 0
65 0 0 0
179 0 0 0
194 0 0 0
189 0 0 0
190 0 0 0
193 0 0 0
184 0 0 0
163 0 0 0
161 0 0 0
75 0 0 0
136 0 0 0
82 0 0 0
84 0 0 0
92 0 0 0
94 0 0 0
99 0 0 0
100 0 0 0
212 0 0 0
214 0 0 0
223 0 0 0
224 0 0 0
70 0 0 0
107 0 0 0
81 0 0 0
83 0 0 0
109 0 0 0
188 0 0 0
91 0 0 0
117 0 0 0
85 0 0 0
93 0 0 0
95 0 0 0
124 0 0 0
125 0 0 0
237 0 0 0
175 0 0 0
204 0 0 0
230 0 0 0
205 0 0 0
211 0 0 0
247 0 0 0
213 0 0 0
249 0 0 0
215 0 0 0
221 0 0 0
197 0 0 0
225 0 0 0
147 0 0 0
106 0 0 0
9 0 0 0
108 0 0 0
110 0 0 0
116 0 0 0
17 0 0 0
119 0 0 0
19 0 0 0
120 0 0 0
24 0 0 0
25 0 0 0
29 0 0 0
229 0 0 0
248 0 0 0
200 0 0 0
236 0 0 0
250 0 0 0
238 0 0 0
7 0 0 0
240 0 0 0
246 0 0 0
149 0 0 0
139 0 0 0
