LAMMPS data file via write_data, version 22 Jul 2025, timestep = 9301, units = metal

250 atoms
1 atom types

-0.021289198587059917 15.847267198587081 xlo xhi
0 15.825978000000001 ylo yhi
0 15.825978000000001 zlo zhi

Masses

1 183.841

Atoms # atomic

2 1 1.6448211027566235 1.644476721205056 1.486883915477965 0 0 0
4 1 4.848970944292717 1.661316868410503 1.4613266682950135 0 0 0
12 1 1.6463227572185686 4.8026739029661965 1.4886257523854096 0 0 0
14 1 4.824675162662192 4.805594176007405 1.4858997159627814 0 0 0
126 1 1.6451421824105443 7.961617094668613 1.483724902520967 0 0 0
158 1 4.818895289470679 7.957218417197673 1.490561839398229 0 0 0
132 1 1.6679734002362965 11.155921608926581 1.436827535828054 0 0 0
134 1 4.812942169299133 11.073833094308272 1.4951284028848515 0 0 0
142 1 1.5836110749327688 14.29201351934253 1.4958690068463616 0 0 0
144 1 5.242525961895836 14.720501660913566 1.0740327133774965 0 0 0
168 1 3.8282089919310915 13.31458078803418 2.4731236646626544 0 0 0
27 1 1.649607457165916 1.6479642503317793 4.65140240763865 0 0 0
26 1 0.05270221770896482 0.062028478641767616 3.071581649363744 0 0 0
28 1 3.2598247718528004 0.09481374368347929 3.0489727303521827 0 0 0
58 1 4.829576883715875 1.6544531183982258 4.663236794871607 0 0 0
159 1 6.4207156974090465 0.0733895916565292 3.1167803393034395 0 0 0
37 1 1.6418690915223944 4.799650229688464 4.660273483979433 0 0 0
38 1 0.058257859058466345 3.222231144928582 3.0725931833940163 0 0 0
39 1 4.82955744853474 4.802821670234259 4.663474670673888 0 0 0
185 1 3.2394405091457337 3.226526452297369 3.0681860731019044 0 1 0
40 1 6.4100864151258765 3.2272216333104216 3.0748876502569584 0 0 0
180 1 0.05530446579658921 6.379554148918099 3.0713362074451322 0 0 0
47 1 3.2313193734394186 6.375633601280614 3.076173539920766 0 0 0
48 1 6.4066277504309 6.384465900131209 3.0765190454779217 0 0 0
151 1 1.6219447072486193 7.9319024756097285 4.679272229098585 0 0 0
156 1 0.06296824184214775 9.555536844566154 3.0128503958594615 0 0 0
157 1 1.05252845738652 10.537844991449601 5.248958108411951 0 0 0
152 1 4.832720002462352 7.9536784950271375 4.661813521406539 0 0 0
22 1 3.211698404407499 9.496509724479441 3.0968155719509056 0 0 0
160 1 6.412936290288173 9.543584309953088 3.0726487463028134 0 0 0
46 1 2.44099586749051 11.92473779690246 3.8599962797520737 -1 0 0
166 1 0.007824735311800208 12.690772900363562 3.096231929539178 0 0 0
170 1 4.870401431695552 11.156799953648461 4.628676307440333 0 0 0
45 1 6.440901426278669 12.743614848499424 3.0448901386814566 0 0 0
167 1 1.6692406261563426 14.350254946831223 4.630409815530423 0 0 0
169 1 4.814176897922892 14.29633171049535 4.711898997867081 0 0 0
35 1 1.6468248643331984 1.6413043880344969 7.819171440217952 0 0 0
80 1 4.819535304953253 14.301579262724143 7.827536179714967 0 -1 0
67 1 4.829095840599688 1.6521223102506253 7.817292188182297 0 0 0
52 1 3.234681697953652 0.06494940318763714 6.24223815410612 0 0 0
53 1 6.409319524198048 0.06698520823717945 6.244863670295286 0 0 0
56 1 0.05333520217023172 3.2187372620228314 6.2403119814255446 0 0 0
71 1 1.6417671548671082 4.798263702385888 7.821913367615997 0 0 0
57 1 3.237081553926882 3.2223678659690274 6.235725616743626 0 0 0
72 1 4.799284962481674 4.802702736789411 7.816724571302868 0 0 0
41 1 6.425066911357252 3.2450679105895697 6.256191742974568 0 0 0
196 1 1.6453761684023387 14.305192918643247 7.824132025143922 0 0 0
62 1 3.239363423710051 6.380189342160461 6.237371653597746 0 0 0
63 1 6.42543655895711 6.362471667112746 6.255958499037085 0 0 0
186 1 1.6914345646784386 7.956685668623865 7.828002304101444 0 0 0
177 1 3.2958121920948136 9.555868861343326 6.229218372543717 0 0 0
187 1 4.839931075048866 7.953833343625586 7.821109483818429 0 0 0
178 1 6.415250427488893 9.545785918633237 6.23415262610677 0 0 0
191 1 1.6208772811141823 11.108492350271877 7.853779524483994 0 0 0
174 1 0.06342428367112758 12.774927455021999 6.230455355489906 1 0 0
182 1 3.2099516746374293 12.693760318863626 6.286443761246817 0 0 0
192 1 4.825420679743352 11.131899393388949 7.823776619311938 0 0 0
183 1 6.411363225917834 12.717363395765222 6.239908213618804 0 0 0
51 1 0.05862248875836475 0.06667056001114788 6.235480414666228 0 0 0
61 1 0.02893703614433868 6.365056355365254 6.265067455020172 0 0 0
76 1 0.05856033249641295 0.05643132848826645 9.401551948750662 0 0 0
78 1 3.2349133936786845 0.059960725797630766 9.400029385422007 0 0 0
68 1 6.407704045049116 0.06548283267079552 9.3955678899819 0 0 0
86 1 0.05689739636654465 3.2149246108536813 9.404420513075877 0 0 0
66 1 3.2371038126266574 3.220863250864737 9.399068125412509 0 0 0
90 1 6.4234342336929 3.245769205900709 9.372200614596299 0 0 0
96 1 0.0706848194308407 6.369981577956142 9.417175470344558 0 0 0
97 1 3.243418140775233 6.38003116563732 9.406383824137581 0 0 0
98 1 6.4211882519619135 6.364088359979859 9.380817898789287 0 0 0
206 1 0.029037137820480226 9.520762250133789 9.421445778274252 0 0 0
208 1 3.235250854934798 9.547190338410054 9.405031219355395 0 0 0
210 1 6.40431376455935 9.545712801413773 9.401654726931163 0 0 0
216 1 0.05547081613971409 12.717026168904306 9.406544917966489 0 0 0
218 1 3.2298752033502245 12.714128461276202 9.408521177946627 0 0 0
220 1 6.406252606043046 12.717631436947885 9.401286176672084 0 0 0
77 1 1.6477496020546565 1.6386058895288589 10.981189219688883 0 0 0
101 1 0.05971603373484631 0.055599852904383906 12.563554188098038 0 0 0
79 1 4.828305485812598 1.6517268545992603 10.966880338162182 0 0 0
103 1 3.2369181397096627 0.0625942127700326 12.557827725201886 0 0 0
219 1 6.428223469476043 0.08087355687809027 12.541118242510503 0 0 0
87 1 1.6492330749962956 4.799260899904597 10.985827225631361 0 0 0
111 1 0.06004467789016606 3.22032536267603 12.565666022615753 0 0 0
89 1 4.827122408894405 4.804619395343728 10.970709210538173 0 0 0
104 1 3.232157744587085 3.2268858611406057 12.558533693313217 0 0 0
115 1 6.401887472469372 3.229746691531854 12.549562339864655 0 0 0
121 1 0.05660992869756041 6.381543105426913 12.570939107315633 0 0 0
122 1 3.2331569712523205 6.38560807659881 12.563991066523673 0 0 0
123 1 6.402084475155182 6.391083106448941 12.558435613901619 0 0 0
231 1 0.05298801504628591 9.545581491089928 12.567133840043818 0 0 0
201 1 1.6443655885369088 7.963861351789766 10.987678555268593 0 0 0
202 1 4.82480120730244 7.961461279081831 10.975826354047959 0 0 0
233 1 3.2329140190777803 9.54903361220654 12.562635964159464 0 0 0
203 1 6.405152533290182 9.550355749916598 12.561901825294806 0 0 0
243 1 1.6401438707381444 11.128059398980337 10.986398946304382 0 0 0
241 1 0.05768189029033903 12.715324612042947 12.56433185881135 0 0 0
207 1 3.2377338058767737 12.722140701163504 12.56093009875427 0 0 0
209 1 4.819252303844446 11.133494407088975 10.982919186495133 0 0 0
245 1 6.410233380930767 12.7200699482702 12.558966968827786 0 0 0
217 1 1.646550402968897 14.299962343478608 10.983213254713396 0 0 0
105 1 4.824287369213624 14.30639639333169 10.979638200038996 0 -1 0
244 1 4.848899557739721 14.330022006799709 14.12662423641759 0 0 0
102 1 1.64072142131674 1.6448372467579409 14.141911356711827 0 0 0
3 1 3.1915124275295472 0.06593664146523638 15.721886286725084 0 0 -1
5 1 4.808246867665902 1.656539471462376 14.129388116618493 0 0 -1
146 1 6.664701365444279 0.31770985016213804 15.471719507685219 0 1 -1
113 1 1.6464141819858213 4.804197627611261 14.148710200924121 0 0 0
11 1 0.059552085672134 3.2222898162572187 15.732128722930078 0 0 -1
242 1 1.6447569790014158 14.301750762417571 14.142020450139647 0 0 0
114 1 4.821011701756694 4.809560539208224 14.142335896264136 0 0 0
15 1 6.426307502385233 3.241174404813213 15.710224014157765 0 0 -1
145 1 6.417534505895337 12.676434728287445 15.718819837284638 0 0 -1
127 1 3.2331093711280174 6.384308377528821 15.730247581672895 0 0 -1
23 1 6.407358238646122 6.389511182825864 15.729116447644843 0 0 -1
226 1 1.6447713321388733 7.966597689981603 14.146765117731977 0 0 0
131 1 0.05809812827977174 9.550927366204508 15.721068803676776 0 0 -1
133 1 3.232575694284964 9.54508063549766 15.725182913403287 0 0 -1
235 1 4.818555997364509 7.968097854348157 14.145241203151702 0 0 0
135 1 6.409359429461088 9.54081597974843 15.72728597078186 0 0 -1
232 1 1.6480505934756657 11.135861083813706 14.13887546105597 0 0 0
49 1 0.05226579756631945 12.716103570172672 15.725064109411969 0 0 -1
234 1 4.821279728617591 11.132783903578833 14.141685603287755 0 0 0
143 1 3.2568701234984263 12.741228540612685 15.695344020499833 0 0 -1
1 1 0.04823432146640376 0.0596328496874816 15.727488744944344 0 0 -1
21 1 0.05814497655496287 6.384193083430486 15.731727152278014 0 0 -1
13 1 3.23516155784513 3.22645628433094 15.727360478396399 0 0 -1
6 1 8.010207662251593 1.6576970008864829 1.5000681576388095 0 0 0
8 1 11.172260460689836 1.6435550002230295 1.4883600267842603 0 0 0
10 1 14.339578238534807 1.6402637131689752 1.4891541137475108 0 0 0
16 1 7.996105559598442 4.809727650623293 1.4861172651786732 0 0 0
18 1 11.165665591662094 4.804823284416474 1.49205002997726 0 0 0
20 1 14.339692645415901 4.802134388201633 1.4903413282948326 0 0 0
128 1 7.9933744962964575 7.967300252003346 1.4907007282395799 0 0 0
129 1 11.163173491543366 7.968388218365699 1.4914808728447624 0 0 0
130 1 14.33463681307411 7.963769605821634 1.4798085034036241 0 0 0
136 1 7.997781033213485 11.132897423741673 1.4862658743228483 0 0 0
137 1 11.16413416625992 11.133633874080399 1.4888194103120096 0 0 0
140 1 14.33255830487143 11.13239297892242 1.4840835098316167 0 0 0
112 1 8.015415325253276 14.330535485738933 1.458796829444063 0 0 0
148 1 11.168189323199071 14.304387096889318 1.483915655317977 0 0 0
150 1 14.328377215722568 14.298141342139651 1.4897898565261933 0 0 0
54 1 7.998734105168118 1.6571948108997294 4.670434809139053 0 0 0
32 1 9.584164330901555 0.06319627006270122 3.0705285996043794 0 0 0
224 1 12.749622063332192 0.058899585450504124 3.072676514779384 0 0 0
44 1 11.158628450221748 1.645788811500093 4.660588731939636 0 0 0
42 1 9.583325769286558 3.225569453380416 3.0785634610021466 0 0 0
64 1 7.9907924481664745 4.803958234621716 4.636036918033619 0 0 0
227 1 12.75112652350812 3.221365856802383 3.0739517440309045 0 0 0
43 1 11.149743267422519 4.79845555334396 4.661646045033321 0 0 0
65 1 14.332563830670846 4.797928964043801 4.6576474442034925 0 0 0
36 1 14.337024390775792 1.6403356713694481 4.654254177154786 -1 0 0
88 1 9.577195466510274 6.386207340972062 3.077641042772372 0 0 0
50 1 12.743453806608326 6.378175945937624 3.068350218294444 0 0 0
55 1 9.577761069753397 9.548212105492764 3.073993051548631 0 0 0
153 1 7.992288170967588 7.955584724412968 4.664656687111394 0 0 0
154 1 11.149967465006046 7.954777818194324 4.664501506354722 0 0 0
164 1 12.743937713978687 9.545849455988819 3.0733401668105684 0 0 0
155 1 14.324783722432468 7.954654904285559 4.616433095933049 0 0 0
172 1 9.582797223269672 12.721765385468187 3.0660311885407685 0 0 0
161 1 8.000549633706429 11.134645196051425 4.651112715929636 0 0 0
138 1 12.74314433574976 12.712355712653121 3.0749708704780203 0 0 0
162 1 11.16015927898843 11.125659697569432 4.6598210105885105 0 0 0
165 1 14.303712148939693 11.105349847095324 4.681370905014541 0 0 0
171 1 7.998711780788905 14.30406834146057 4.655118482037118 0 0 0
30 1 11.164275429991239 14.30049897938183 4.653224676941576 0 0 0
197 1 14.33287539150193 14.303784493818005 4.6543006485606995 0 -1 0
34 1 9.580059644281647 0.06124387921341614 6.234081559523769 0 0 0
31 1 7.992586349349535 1.6236833025820148 7.8135913931207215 0 0 0
69 1 11.153624906334016 1.6439396618743969 7.815114978338092 0 0 0
33 1 12.748837238677561 0.0575355342598702 6.2363436147226 0 0 0
239 1 14.335145509852495 1.6363881377140437 7.820380755588971 0 0 0
59 1 9.5578329892631 3.2405494450147705 6.254094454572539 0 0 0
60 1 12.743008221478053 3.214289834247025 6.236635253035857 0 0 0
74 1 11.173746428945588 4.793456710551975 7.813809523776243 0 0 0
75 1 14.319540249526897 4.783403384924291 7.839276136781686 0 0 0
181 1 9.548690112517502 6.358968073470116 6.256584845319279 0 0 0
73 1 12.72576231075273 6.366862433296192 6.225932745062598 0 0 0
118 1 9.574889093417143 9.53924588013351 6.240309126744816 0 0 0
179 1 7.985793297365893 7.982759599341881 7.8192513910383274 0 0 0
189 1 11.126885123065493 7.93335733621652 7.839854977984552 0 0 0
194 1 12.726282526235742 9.516443832714177 6.268463138525656 0 0 0
176 1 15.510733862153936 9.134687115999816 6.655407230572275 -1 0 0
184 1 9.57945285890749 12.715149629508204 6.235445365655914 0 0 0
193 1 7.992419634481221 11.133919187645995 7.818750010333634 0 0 0
222 1 11.157457860816537 11.127128742134689 7.822876827801959 0 0 0
163 1 12.745145363653329 12.715891749574606 6.23852108483786 0 0 0
195 1 14.325250516788465 11.173992988622459 7.831467181548377 0 0 0
198 1 7.993450506875683 14.298490496599802 7.81703078014811 0 0 0
199 1 11.162814837311396 14.299455518849541 7.816804925738394 0 0 0
70 1 14.334710020171986 14.309073458361306 7.822046756951566 0 -1 0
82 1 9.580249512228198 0.060153298806655334 9.393884768691091 0 0 0
84 1 12.749374713788875 0.054854893846092094 9.399499260410236 0 0 0
92 1 9.556209053361092 3.2431964051958415 9.365251320710739 0 0 0
94 1 12.7374517205475 3.201748145042779 9.408334765297534 0 0 0
99 1 9.527645461366875 6.35093034927268 9.38588436272631 0 0 0
100 1 12.618578681532671 6.261254081008018 9.529677543062746 0 0 0
190 1 14.081480321488726 7.7044347968511255 8.070665841159476 0 0 0
119 1 9.5700353107817 9.542571991122633 9.404297678917704 0 0 0
214 1 12.732108159424476 9.553740139596213 9.415835229818061 0 0 0
223 1 9.577537263040357 12.715372851177339 9.399330483365196 0 0 0
213 1 12.74461392081385 12.720719786871353 9.406550677845487 0 0 0
107 1 9.588263433122814 0.0564185866054146 12.552104646442062 0 0 0
81 1 8.000820782588237 1.659693141714187 10.948408349988835 0 0 0
83 1 11.158421516271156 1.6357983418902375 10.973145495597391 0 0 0
109 1 12.756136616175937 0.05585922122158269 12.561017889339459 0 0 0
188 1 14.340093418383104 1.6343372713363484 10.983238194558938 0 0 0
117 1 9.615749179419902 3.2571666829965644 12.522607221023904 0 0 0
91 1 7.978822747891934 4.802310275856247 11.002338834989853 0 0 0
85 1 12.761306004691752 3.2227996105905117 12.562307929636823 0 0 0
93 1 11.116715529782288 4.765913390853791 11.006387288470748 0 0 0
95 1 14.339692665966878 4.794789688438445 10.989959845014218 0 0 0
25 1 9.576785293641079 6.395767026073745 12.55958953156715 0 0 -1
125 1 12.740412951255015 6.3756106910969725 12.582663824313686 0 0 0
237 1 9.575162676088128 9.550540297975392 12.564645882182154 0 0 0
175 1 7.984840935801566 7.959594357651662 10.973982221031285 0 0 0
204 1 11.143877780159752 7.963228497472214 10.985328546053488 0 0 0
230 1 12.745532962466863 9.5469075866561 12.569474471998939 0 0 0
205 1 14.316801208491162 7.946174385549921 11.002623206526833 0 0 0
211 1 7.990621417210503 11.132508525647683 10.980451677489599 0 0 0
247 1 9.582833457058303 12.714741799948062 12.559803887010236 0 0 0
212 1 11.159916301564136 11.132916260491267 10.98604583304319 0 0 0
240 1 12.75270919473416 12.71519561794435 12.565507688769069 0 0 0
215 1 14.333732663785213 11.129548687571958 10.98769411556235 0 0 0
221 1 7.9961664228509255 14.303554035385961 10.974315360784056 0 0 0
249 1 11.166124470404245 14.298827536022388 10.980226205638873 0 0 0
225 1 14.339740858775624 14.298132952184398 10.983417149364666 0 0 0
106 1 8.121209777793807 1.7702999259688306 14.01659098902494 0 0 0
7 1 9.60175593809347 0.07872764075089816 15.709382590455553 0 0 -1
108 1 11.187390087079303 1.6487231878621078 14.136875439253188 0 0 0
9 1 12.756541195978272 0.058638918636097916 15.728639562866588 0 0 -1
110 1 14.342960814386242 1.6400134978692666 14.146367602610054 0 0 0
116 1 8.000650788647482 4.823612355315813 14.14019338070443 0 0 0
17 1 9.589513937225785 3.2309067174546606 15.73346058942892 0 0 -1
19 1 12.757648908656408 3.2232952404394877 15.733134354757249 0 0 -1
124 1 11.164759754890088 4.803917985532167 14.1566659131835 0 0 0
120 1 14.341087580367564 4.802005453707254 14.152589062295268 0 0 0
24 1 9.580340437172534 6.3912225179719355 15.733375055772093 0 0 -1
229 1 12.750772485896237 6.3847751821348195 15.734601625558268 0 0 0
228 1 7.992311959048297 7.970380145723501 14.145369549216653 0 0 0
29 1 9.579321387274275 9.551785035567907 15.73207901869231 0 0 0
173 1 11.16249254727259 7.969635727135976 14.1518887520306 0 0 0
139 1 12.750053434098392 9.550622052442431 15.73185192779829 0 0 -1
200 1 14.336096525217775 7.965407877249417 14.15120617815648 0 0 0
236 1 7.99814588337247 11.128365364885221 14.141207530447431 0 0 0
147 1 9.584500091533206 12.719426688744168 15.726447859979748 0 0 -1
149 1 12.751097111601352 12.716516049029472 15.730003492962087 0 0 -1
238 1 11.165732053926481 11.133701165420772 14.148352078076359 0 0 0
141 1 14.337418604647477 11.132126338440619 14.146663597098907 -1 0 -1
246 1 8.010361618653915 14.291919922850349 14.129679087895271 0 0 0
248 1 11.172185267350738 14.30109145703112 14.143089535508546 0 0 0
250 1 14.339525892228927 14.298958041420109 14.146068392299036 0 0 0

Velocities

2 0 0 0
4 0 0 0
12 0 0 0
14 0 0 0
126 0 0 0
158 0 0 0
132 0 0 0
134 0 0 0
142 0 0 0
144 0 0 0
168 0 0 0
27 0 0 0
26 0 0 0
28 0 0 0
58 0 0 0
159 0 0 0
37 0 0 0
38 0 0 0
39 0 0 0
185 0 0 0
40 0 0 0
180 0 0 0
47 0 0 0
48 0 0 0
151 0 0 0
156 0 0 0
157 0 0 0
152 0 0 0
22 0 0 0
160 0 0 0
46 0 0 0
166 0 0 0
170 0 0 0
45 0 0 0
167 0 0 0
169 0 0 0
35 0 0 0
80 0 0 0
67 0 0 0
52 0 0 0
53 0 0 0
56 0 0 0
71 0 0 0
57 0 0 0
72 0 0 0
41 0 0 0
196 0 0 0
62 0 0 0
63 0 0 0
186 0 0 0
177 0 0 0
187 0 0 0
178 0 0 0
191 0 0 0
174 0 0 0
182 0 0 0
192 0 0 0
183 0 0 0
51 0 0 0
61 0 0 0
76 0 0 0
78 0 0 0
68 0 0 0
86 0 0 0
66 0 0 0
90 0 0 0
96 0 0 0
97 0 0 0
98 0 0 0
206 0 0 0
208 0 0 0
210 0 0 0
216 0 0 0
218 0 0 0
220 0 0 0
77 0 0 0
101 0 0 0
79 0 0 0
103 0 0 0
219 0 0 0
87 0 0 0
111 0 0 0
89 0 0 0
104 0 0 0
115 0 0 0
121 0 0 0
122 0 0 0
123 0 0 0
231 0 0 0
201 0 0 0
202 0 0 0
233 0 0 0
203 0 0 0
243 0 0 0
241 0 0 0
207 0 0 0
209 0 0 0
245 0 0 0
217 0 0 0
105 0 0 0
244 0 0 0
102 0 0 0
3 0 0 0
5 0 0 0
146 0 0 0
113 0 0 0
11 0 0 0
242 0 0 0
114 0 0 0
15 0 0 0
145 0 0 0
127 0 0 0
23 0 0 0
226 0 0 0
131 0 0 0
133 0 0 0
235 0 0 0
135 0 0 0
232 0 0 0
49 0 0 0
234 0 0 0
143 0 0 0
1 0 0 0
21 0 0 0
13 0 0 0
6 0 0 0
8 0 0 0
10 0 0 0
16 0 0 0
18 0 0 0
20 0 0 0
128 0 0 0
129 0 0 0
130 0 0 0
136 0 0 0
137 0 0 0
140 0 0 0
112 0 0 0
148 0 0 0
150 0 0 0
54 0 0 0
32 0 0 0
224 0 0 0
44 0 0 0
42 0 0 0
64 0 0 0
227 0 0 0
43 0 0 0
65 0 0 0
36 0 0 0
88 0 0 0
50 0 0 0
55 0 0 0
153 0 0 0
154 0 0 0
164 0 0 0
155 0 0 0
172 0 0 0
161 0 0 0
138 0 0 0
162 0 0 0
165 0 0 0
171 0 0 0
30 0 0 0
197 0 0 0
34 0 0 0
31 0 0 0
69 0 0 0
33 0 0 0
239 0 0 0
59 0 0 0
60 0 0 0
74 0 0 0
75 0 0 0
181 0 0 0
73 0 0 0
118 0 0 0
179 0 0 0
189 0 0 0
194 0 0 0
176 0 0 0
184 0 0 0
193 0 0 0
222 0 0 0
163 0 0 0
195 0 0 0
198 0 0 0
199 0 0 0
70 0 0 0
82 0 0 0
84 0 0 0
92 0 0 0
94 0 0 0
99 0 0 0
100 0 0 0
190 0 0 0
119 0 0 0
214 0 0 0
223 0 0 0
213 0 0 0
107 0 0 0
81 0 0 0
83 0 0 0
109 0 0 0
188 0 0 0
117 0 0 0
91 0 0 0
85 0 0 0
93 0 0 0
95 0 0 0
25 0 0 0
125 0 0 0
237 0 0 0
175 0 0 0
204 0 0 0
230 0 0 0
205 0 0 0
211 0 0 0
247 0 0 0
212 0 0 0
240 0 0 0
215 0 0 0
221 0 0 0
249 0 0 0
225 0 0 0
106 0 0 0
7 0 0 0
108 0 0 0
9 0 0 0
110 0 0 0
116 0 0 0
17 0 0 0
19 0 0 0
124 0 0 0
120 0 0 0
24 0 0 0
229 0 0 0
228 0 0 0
29 0 0 0
173 0 0 0
139 0 0 0
200 0 0 0
236 0 0 0
147 0 0 0
149 0 0 0
238 0 0 0
141 0 0 0
246 0 0 0
248 0 0 0
250 0 0 0
