LAMMPS data file via write_data, version 22 Jul 2025, timestep = 5941, units = metal

250 atoms
1 atom types

-0.021137103277966945 15.84711510327796 xlo xhi
0 15.825978000000001 ylo yhi
0 15.825978000000001 zlo zhi

Masses

1 183.841

Atoms # atomic

2 1 1.7035555794197386 1.607280389088238 1.4845126190346978 0 0 0
4 1 4.875084372251394 1.6043359836017876 1.5163376359642395 0 0 0
12 1 1.691887342766836 4.760942791297078 1.5091442615390585 0 0 0
14 1 4.873637792404607 4.759111787286867 1.5136417650635987 0 0 0
126 1 1.6883630349734486 7.919097873422761 1.5057816747620187 0 0 0
158 1 4.866477991531614 7.913368970733684 1.5116358711193616 0 0 0
132 1 1.6914222993249108 11.082237062130424 1.5064811474384228 0 0 0
134 1 4.859982352196252 11.084840005009845 1.505265030391318 0 0 0
142 1 1.7134262060717456 14.281335682376147 1.535454017604262 0 0 0
144 1 4.862995210751608 14.259029228706508 1.5117167567666245 0 0 0
27 1 1.8870771038788379 1.7893910165677192 4.859622720219614 0 0 0
26 1 0.43661570513328646 0.3527549745066241 3.436240564749445 0 0 0
28 1 3.296976148727994 0.0387463874603241 3.1172375758876076 0 0 0
58 1 4.897814779704214 1.6193938715673917 4.68597870039652 0 0 0
37 1 1.6997803857626377 4.776510017711318 4.685037127729964 0 0 0
36 1 0.12416569761958678 3.1907712483495643 3.11458244615232 0 0 0
38 1 3.295964148706979 3.1892346249647403 3.0824625888836854 0 0 0
39 1 4.844901567803942 4.760784602384704 4.66238927870687 0 0 0
40 1 6.4756165250772595 3.199927712928112 3.1080524398914284 0 0 0
180 1 0.1018328130857241 6.340226476927874 3.090951405071156 0 0 0
47 1 3.2808609951782683 6.344458036713475 3.0863341746304163 0 0 0
48 1 6.466049537278784 6.317458295972561 3.10543528614371 0 0 0
151 1 1.6888340517535183 7.922727189017885 4.670921557677341 0 0 0
156 1 0.09899083543290306 9.49235707926539 3.0884376438628443 0 0 0
152 1 4.869571343745429 7.913702257639447 4.664892895993034 0 0 0
22 1 3.27595191696414 9.501981203611379 3.087620658256531 0 0 0
160 1 6.444770234368913 9.497794312434376 3.086008535854674 0 0 0
166 1 0.10109602706237196 12.614321532461625 3.0904086085096076 0 0 0
157 1 1.691362345322456 11.077385441111252 4.675083870425314 0 0 0
168 1 3.278930042270597 12.670412422845926 3.0915006331338115 0 0 0
170 1 4.8617099064949985 11.085034277881704 4.668731390617101 0 0 0
45 1 6.444727399212609 12.669611471573473 3.0879812648696645 0 0 0
167 1 1.7033837669171425 14.226823659726795 4.686793306654505 0 0 0
169 1 4.867736437931204 14.256949019060126 4.67489833807327 0 0 0
35 1 1.7024670787756935 1.606474638062709 7.855506454683049 0 0 0
51 1 0.12445276120598187 0.03573062332893414 6.269773455322937 0 0 0
67 1 4.874878159580426 1.592684787182934 7.832309277202891 0 0 0
52 1 3.290439346299964 0.008324355403002368 6.265871044578548 0 0 0
53 1 6.454080563144702 0.014458183356289987 6.255379091262214 0 0 0
71 1 1.6816384855442261 4.759875066064463 7.837922342758195 0 0 0
56 1 0.09440261620990734 3.1845687601138835 6.264720551470456 0 0 0
57 1 3.360910047016654 3.254489588131737 6.336209210774112 0 0 0
72 1 4.874223872243891 4.758710735079646 7.825571225911221 0 0 0
41 1 6.4897773921006205 3.202533245490962 6.233795825193841 0 0 0
61 1 0.09801414002439322 6.343485173996117 6.255280123774168 0 0 0
62 1 3.282683519099109 6.353629374374437 6.255574372462443 0 0 0
63 1 6.464548274673464 6.30981073779463 6.2091460158797815 0 0 0
186 1 1.6828875810411965 7.9233016304900294 7.8335464720879315 0 0 0
176 1 0.09743772746691756 9.503088837743919 6.253038892378221 0 0 0
177 1 3.2743448961690214 9.503213160696491 6.25027418837539 0 0 0
187 1 4.8618587798358535 7.918595466127264 7.819803157179302 0 0 0
178 1 6.4431084580564555 9.496478503000603 6.2446399707846485 0 0 0
181 1 0.10165801880125812 12.669780601660655 6.257344548435687 0 0 0
191 1 1.6848429509014633 11.086468172767743 7.834997607725336 0 0 0
182 1 3.27932439722668 12.665423403269454 6.2578616898652974 0 0 0
192 1 4.85725715124239 11.08521905368136 7.830766734862128 0 0 0
183 1 6.447127265084978 12.668292499685442 6.251393363963718 0 0 0
196 1 1.690482761097617 14.254682931337939 7.839921048740916 0 0 0
80 1 4.863392333277201 14.251563834459104 7.8368666607428015 0 -1 0
159 1 6.450099880911944 0.018758928238740053 3.091251407068918 0 0 0
76 1 0.10175192260568994 0.011978507071546927 9.419164920757696 0 0 0
78 1 3.277910670020855 0.009922475541079247 9.421467631139638 0 0 0
68 1 6.448087052568527 0.007877658571082224 9.415210840705015 0 0 0
86 1 0.09786924095417064 3.1761015966022565 9.422339563322767 0 0 0
66 1 3.279248344201492 3.178554527192662 9.431270418235643 0 0 0
90 1 6.443249766586843 3.158111221200055 9.407111812377135 0 0 0
96 1 0.09528235359033146 6.337364162403164 9.416525535491637 0 0 0
97 1 3.2578240500644147 6.331954504979891 9.410129699553897 0 0 0
98 1 6.370448726471867 6.2638799921862525 9.336432296468853 0 0 0
206 1 0.09672699742926383 9.503239837930346 9.415434436466004 0 0 0
208 1 3.2677335043417477 9.501105756775738 9.411512250947888 0 0 0
210 1 6.4325348235152875 9.5017531267559 9.399803531578522 0 0 0
216 1 0.09867900310405854 12.669205398735743 9.415710897683718 0 0 0
218 1 3.2719309885371257 12.66855547696477 9.417475493324037 0 0 0
220 1 6.4406023250047015 12.671110812303526 9.410315589272722 0 0 0
77 1 1.6872637180698713 1.5923212121116301 11.003610859813653 0 0 0
101 1 0.09902434588906409 0.009042219892773658 12.57319586924333 0 0 0
79 1 4.860293440724373 1.5875734248686695 11.002584785225089 0 0 0
103 1 3.27414351789541 0.007643309525842695 12.584524355283934 0 0 0
219 1 6.445018879229317 0.0075960993102137725 12.583895229888832 0 0 0
87 1 1.681717227257278 4.755203654603265 11.003507719966791 0 0 0
111 1 0.09726867457788432 3.174258859282598 12.58434241567134 0 0 0
89 1 4.855369253643483 4.750590367361802 11.003950151613452 0 0 0
104 1 3.272798550096957 3.1731123478113843 12.586039294890082 0 0 0
115 1 6.442818058791311 3.166938713579685 12.583568697492602 0 0 0
121 1 0.09678388070412441 6.336298741433186 12.584048336719038 0 0 0
122 1 3.266299675953392 6.334195156764463 12.583588286321959 0 0 0
123 1 6.4312746671396885 6.323940344107445 12.58589266758024 0 0 0
244 1 4.8597358386817655 14.25138888860439 14.16712986878566 0 0 0
231 1 0.10838372832546281 9.501840522822341 12.582289359930545 0 0 0
201 1 1.6812785456851969 7.918318918681022 10.997984774086603 0 0 0
202 1 4.835807989883608 7.904470836703251 10.98327389944046 0 0 0
233 1 3.269602884270807 9.498858957184531 12.579470581347973 0 0 0
203 1 6.42584201761226 9.475223580209562 12.556147354573124 0 0 0
207 1 1.686078772516949 11.085079209188445 10.998033415952728 0 0 0
241 1 0.10485665851495143 12.668527133954376 12.576628085956004 0 0 0
209 1 4.853241953069849 11.082239373482492 10.994470706110645 0 0 0
243 1 3.2739140086768566 12.667670388883636 12.582330011655142 0 0 0
245 1 6.4405013662972435 12.666600852805947 12.579047288114255 0 0 0
217 1 1.6872250272410505 14.251880893870286 10.999081910636619 0 0 0
105 1 4.8587882377080485 14.250498710150556 11.000402250290064 0 -1 0
1 1 0.10124931620583669 0.011518232091138406 15.695128744477413 0 0 -1
102 1 1.691219378069586 1.5962826944636748 14.159484840377262 0 0 0
3 1 3.280030347360039 0.01390294727550306 15.753072941316189 0 0 -1
5 1 4.860983272040249 1.5904955662034426 14.169367843306185 0 0 -1
146 1 6.446061296285157 0.01140541753901382 15.75182478435495 0 1 -1
113 1 1.684733489990296 4.756124346002288 14.168149695623347 0 0 0
11 1 0.10167862609914607 3.1782360957787286 15.751358314712542 0 0 -1
13 1 3.2803776897766195 3.1798542092891102 15.748088595962283 0 0 -1
114 1 4.8577736463294015 4.752745497895852 14.169736364506557 0 0 0
15 1 6.447447498994083 3.173099399671731 15.755016949854662 0 0 -1
21 1 0.09876579208325294 6.335931682942359 15.750314265669667 0 0 -1
127 1 3.2737550874340524 6.337357024269845 15.750924070509718 0 0 -1
23 1 6.440816095663954 6.332428293000679 15.75761737791364 0 0 -1
226 1 1.6861946746968568 7.918292402316602 14.166571394193289 0 0 0
131 1 0.1046542243907888 9.49602119775201 15.749363111378793 0 0 -1
235 1 4.853621676334303 7.915052148263181 14.165043297071673 0 0 0
133 1 3.275800360368653 9.500197110314122 15.75004682412257 0 0 -1
135 1 6.4415075838906395 9.497056009663867 15.74928648807894 0 0 -1
232 1 1.6968129422030354 11.087049131458757 14.168416906291231 0 0 0
49 1 0.14230271783616555 12.692800036647997 15.773132953975926 0 0 -1
234 1 4.857108467440822 11.079646995515942 14.160908018904587 0 0 0
143 1 3.279644382660951 12.673224384247176 15.75390159023026 0 0 -1
145 1 6.440021147313157 12.664079209905767 15.744605719422733 0 0 -1
242 1 1.6915433042438703 14.252548905758024 14.163598505207817 0 0 0
175 1 7.849797065793146 7.733029594603496 10.81399887607606 0 0 0
6 1 8.032508932086408 1.6041247853642695 1.5163529108515896 0 0 0
8 1 11.19329267740746 1.6049787490888037 1.514133229951978 0 0 0
10 1 14.404466569489918 1.6184812667304125 1.5339147308976335 0 0 0
16 1 8.034276251181439 4.755272583631675 1.4877258128970392 0 0 0
18 1 11.19559012271806 4.755643831013649 1.5154566382593833 0 0 0
20 1 14.382559018006102 4.757527122938144 1.512021989140407 0 0 0
128 1 8.027335498245185 7.9030935176497765 1.5244456708857899 0 0 0
129 1 11.196440708841227 7.905134684216862 1.5170742772007044 0 0 0
130 1 14.376207941132092 7.908961482947454 1.5043729039498657 0 0 0
136 1 8.026568314940318 11.082411056884547 1.509225147566021 0 0 0
137 1 11.222301873499331 11.100522060120639 1.5638193192050538 0 0 0
140 1 14.358429077969774 11.027867352527435 1.4851377006669049 0 0 0
112 1 8.022146765497345 14.25181695839677 1.504276675481611 0 0 0
148 1 11.147450886418559 14.231545511009022 1.4837961675071258 0 0 0
150 1 14.892476225705552 14.767457905560818 2.0208108954139705 0 0 0
149 1 13.493812269982493 13.370777693769806 0.6228912051838605 0 0 0
163 1 12.795876077884921 12.671785446348546 6.258039950319315 0 0 0
32 1 9.60937266984103 0.014690154054457373 3.087374459159203 0 0 0
44 1 11.185672234256588 1.6065761197628219 4.6742885191091945 0 0 0
197 1 12.732738833556155 0.011612808206129432 3.0896174840602413 0 0 0
185 1 14.344112241353777 1.6074438885772409 4.685260146769464 0 1 0
42 1 9.599738673782195 3.1966614618610434 3.1075686403135454 0 0 0
227 1 12.786629404372148 3.1786027147263898 3.0900112459608287 0 0 0
43 1 11.225578756095029 4.75615886061263 4.668395791356212 0 0 0
46 1 14.382889207045 4.760729291826259 4.674092158020176 -1 0 0
88 1 9.600128589013675 6.3144129277289025 3.10809369444649 0 0 0
50 1 12.787647248553233 6.33617421788838 3.0881935805344405 0 0 0
55 1 9.618116181676609 9.494806532504034 3.096944262247892 0 0 0
153 1 8.031994516819111 7.935228045126112 4.664547909865319 0 0 0
154 1 11.19536556660158 7.907133085894499 4.669945067404687 0 0 0
164 1 12.790350814577911 9.493359938386137 3.095394160610543 0 0 0
155 1 14.377659238759007 7.917962814382746 4.671387192511911 0 0 0
172 1 9.612709282427247 12.66797255064741 3.0932974310085393 0 0 0
161 1 8.031299216467598 11.085847653784242 4.669904764714341 0 0 0
138 1 12.81383378501834 12.690237291276722 3.1316658791954852 0 0 0
162 1 11.205883382669017 11.08394937960997 4.679912298128062 0 0 0
165 1 14.379817982920478 11.081356840183405 4.67521676358423 0 0 0
198 1 8.034013711478009 14.25170554950195 7.832193633521501 0 0 0
34 1 9.620611436580035 0.012831795116003226 6.253199609778648 0 0 0
30 1 11.200682056730802 14.253392048835776 4.675081154435544 0 0 0
174 1 14.40582505478123 14.279121502615963 4.696803568383997 0 0 0
70 1 14.384155641373216 14.25680225386137 7.8363796041118565 0 -1 0
54 1 8.038518844938471 1.5757195152772967 4.670534978701791 0 0 0
69 1 11.19928066490478 1.5975074604187824 7.827022452735041 0 0 0
33 1 12.790509942217575 0.012369735574218757 6.256467078882197 0 0 0
239 1 14.3799795388722 1.5950815070527102 7.8394261574243576 0 0 0
59 1 9.602517153421626 3.194216034328057 6.231292013283918 0 0 0
195 1 14.378189538254757 11.085328023600221 7.834217488208714 0 0 0
60 1 12.78265353317585 3.1788109215723193 6.25803609226222 0 0 0
74 1 11.197207368778923 4.752981180670213 7.820834263052276 0 0 0
75 1 14.376033540390523 4.757541558457068 7.835586732199043 0 0 0
64 1 9.600322354751352 6.312197801292742 6.222579794254174 0 0 0
179 1 8.017934572957293 7.8926716423892955 7.797894205580555 0 0 0
65 1 12.787006099210748 6.338179762192435 6.250989070836493 0 0 0
118 1 9.615830092432217 9.492174823818814 6.248673733102042 0 0 0
189 1 11.195267058728948 7.9068477841694405 7.8193045424996255 0 0 0
194 1 12.789600924113248 9.499331425517248 6.25215780458813 0 0 0
190 1 14.37639259449771 7.920292667019708 7.832950185077877 0 0 0
193 1 8.028034829586925 11.079570964465384 7.826615742786794 0 0 0
184 1 9.618784141789822 12.666748241146436 6.253498965716193 0 0 0
222 1 11.199626190486766 11.077616046734546 7.831620635206069 0 0 0
171 1 8.03256791576131 14.250542497813509 4.671112147251069 0 0 0
31 1 8.037929092111082 1.5979499738914364 7.8238795433205155 0 0 0
73 1 8.041042764761379 4.751927833418704 7.848275316838898 0 0 0
199 1 11.20557902648437 14.251465644114406 7.8340119856915855 0 0 0
82 1 9.619049586722706 0.008974375417466204 9.41335464421662 0 0 0
84 1 12.791056124061647 0.010368193629862538 9.413701784003043 0 0 0
92 1 9.620396194810342 3.1671404157846026 9.408359951058731 0 0 0
94 1 12.790367862141784 3.1732964442390363 9.415502340791809 0 0 0
99 1 9.62318223913459 6.324631453038919 9.396654408460757 0 0 0
100 1 12.793718035586911 6.330667359466561 9.40897888935136 0 0 0
212 1 9.591372263906711 9.472709723418888 9.394979592715787 0 0 0
214 1 12.788721463575108 9.497205871353277 9.409931104200828 0 0 0
223 1 9.615224768735636 12.665845738731697 9.41092107267048 0 0 0
224 1 12.787361470564095 12.663505660428987 9.410835736040944 0 0 0
107 1 9.617525303115515 0.018587951862290078 12.581759756070614 0 0 0
81 1 8.031475438739728 1.588233681839251 10.99645045427846 0 0 0
83 1 11.205039428421737 1.591726317743959 10.996703062173374 0 0 0
109 1 12.79171146305252 0.015023989529090197 12.576550596726461 0 0 0
188 1 14.378864948081345 1.5923863971927708 10.998826523097886 0 0 0
91 1 8.018288713579139 4.7340477353032355 10.986109617603306 0 0 0
117 1 9.61583513551474 3.1704468473316356 12.579498651761913 0 0 0
85 1 12.790910842953876 3.174734540573443 12.582252470642612 0 0 0
93 1 11.202211194564477 4.74970742853496 10.99337785892406 0 0 0
95 1 14.377461496259617 4.754334940198852 11.000398952656774 0 0 0
124 1 9.59370818040431 6.31953710068407 12.557054285357783 0 0 0
125 1 12.790544698904142 6.3321931126658155 12.579862519301134 0 0 0
204 1 11.229712860094619 7.902980612405198 10.982058645126498 0 0 0
237 1 9.289761577521352 9.172319473508391 12.25348408395157 0 0 0
230 1 12.845327840467778 9.499903739492824 12.580855129688931 0 0 0
205 1 14.386355114745172 7.914639664952006 10.994446135869977 0 0 0
211 1 8.014676539776532 11.106667753538883 10.981445009234193 0 0 0
247 1 9.614316480038253 12.720578966468244 12.578367969763388 0 0 0
213 1 11.176482798125855 11.055884069442618 10.97430382317304 0 0 0
240 1 12.769223167466563 12.645547479414766 12.540112373823373 0 0 0
215 1 14.381767086300464 11.084276807876968 10.994394319099476 0 0 0
221 1 8.027118729716722 14.259057833765407 10.99365456527433 0 0 0
249 1 11.20407732211274 14.254449006226068 10.993946031522153 0 0 0
225 1 14.377094803260581 14.250001640111423 10.989155959116426 0 0 0
106 1 8.03096722539029 1.5927910064704678 14.168091633848892 0 0 0
7 1 9.610919865252203 0.017031872223376637 15.750709603137555 0 0 -1
108 1 11.206136594736652 1.6020714162084866 14.168941957787146 0 0 0
9 1 12.811933016339903 0.05576827808766604 15.773760674596346 0 0 -1
110 1 14.379531226734883 1.596654936332015 14.163241135338284 0 0 0
17 1 9.61834244315932 3.1749969234849407 15.75408713452518 0 0 -1
116 1 8.028290628898299 4.749777991270168 14.162727930585097 0 0 0
119 1 11.199184894964434 4.753223247025747 14.162800759466265 0 0 0
19 1 12.794137146403456 3.1809057590692142 15.75509454152028 0 0 -1
120 1 14.378272540062525 4.755253389688921 14.167219276346845 0 0 0
24 1 9.615812505988856 6.332136072733243 15.753578570060277 0 0 -1
228 1 8.01591514804919 7.902042161147433 14.19128746864117 0 0 0
25 1 12.78601048597115 6.330127078373971 15.7467596782507 0 0 -1
229 1 11.177043218177605 7.893246982318807 14.13998560251806 0 0 0
29 1 9.612565244288135 9.49448621794303 15.805495407742326 0 0 0
139 1 12.766882833157965 9.45622606012448 15.728955393345855 0 0 -1
200 1 14.381944548193102 7.914436563973669 14.165876657721116 0 0 0
147 1 9.575955550121275 12.644109097861877 15.72514402128257 0 0 -1
236 1 8.005655006969521 11.055697373967838 14.137195869500822 0 0 0
173 1 10.704514748519633 10.58522120324943 13.670554729943472 0 0 0
238 1 12.108941916228503 11.983770940588899 15.066055256337261 0 0 0
141 1 14.4383463769298 11.104884332991118 14.186016086648246 -1 0 -1
246 1 8.026928036529164 14.254621417818594 14.165249786300198 0 0 0
248 1 11.223292887256916 14.309795756599756 14.185111224873804 0 0 0
250 1 14.359762402399621 14.232197384834718 14.108079236621245 0 0 0

Velocities

2 0 0 0
4 0 0 0
12 0 0 0
14 0 0 0
126 0 0 0
158 0 0 0
132 0 0 0
134 0 0 0
142 0 0 0
144 0 0 0
27 0 0 0
26 0 0 0
28 0 0 0
58 0 0 0
37 0 0 0
36 0 0 0
38 0 0 0
39 0 0 0
40 0 0 0
180 0 0 0
47 0 0 0
48 0 0 0
151 0 0 0
156 0 0 0
152 0 0 0
22 0 0 0
160 0 0 0
166 0 0 0
157 0 0 0
168 0 0 0
170 0 0 0
45 0 0 0
167 0 0 0
169 0 0 0
35 0 0 0
51 0 0 0
67 0 0 0
52 0 0 0
53 0 0 0
71 0 0 0
56 0 0 0
57 0 0 0
72 0 0 0
41 0 0 0
61 0 0 0
62 0 0 0
63 0 0 0
186 0 0 0
176 0 0 0
177 0 0 0
187 0 0 0
178 0 0 0
181 0 0 0
191 0 0 0
182 0 0 0
192 0 0 0
183 0 0 0
196 0 0 0
80 0 0 0
159 0 0 0
76 0 0 0
78 0 0 0
68 0 0 0
86 0 0 0
66 0 0 0
90 0 0 0
96 0 0 0
97 0 0 0
98 0 0 0
206 0 0 0
208 0 0 0
210 0 0 0
216 0 0 0
218 0 0 0
220 0 0 0
77 0 0 0
101 0 0 0
79 0 0 0
103 0 0 0
219 0 0 0
87 0 0 0
111 0 0 0
89 0 0 0
104 0 0 0
115 0 0 0
121 0 0 0
122 0 0 0
123 0 0 0
244 0 0 0
231 0 0 0
201 0 0 0
202 0 0 0
233 0 0 0
203 0 0 0
207 0 0 0
241 0 0 0
209 0 0 0
243 0 0 0
245 0 0 0
217 0 0 0
105 0 0 0
1 0 0 0
102 0 0 0
3 0 0 0
5 0 0 0
146 0 0 0
113 0 0 0
11 0 0 0
13 0 0 0
114 0 0 0
15 0 0 0
21 0 0 0
127 0 0 0
23 0 0 0
226 0 0 0
131 0 0 0
235 0 0 0
133 0 0 0
135 0 0 0
232 0 0 0
49 0 0 0
234 0 0 0
143 0 0 0
145 0 0 0
242 0 0 0
175 0 0 0
6 0 0 0
8 0 0 0
10 0 0 0
16 0 0 0
18 0 0 0
20 0 0 0
128 0 0 0
129 0 0 0
130 0 0 0
136 0 0 0
137 0 0 0
140 0 0 0
112 0 0 0
148 0 0 0
150 0 0 0
149 0 0 0
163 0 0 0
32 0 0 0
44 0 0 0
197 0 0 0
185 0 0 0
42 0 0 0
227 0 0 0
43 0 0 0
46 0 0 0
88 0 0 0
50 0 0 0
55 0 0 0
153 0 0 0
154 0 0 0
164 0 0 0
155 0 0 0
172 0 0 0
161 0 0 0
138 0 0 0
162 0 0 0
165 0 0 0
198 0 0 0
34 0 0 0
30 0 0 0
174 0 0 0
70 0 0 0
54 0 0 0
69 0 0 0
33 0 0 0
239 0 0 0
59 0 0 0
195 0 0 0
60 0 0 0
74 0 0 0
75 0 0 0
64 0 0 0
179 0 0 0
65 0 0 0
118 0 0 0
189 0 0 0
194 0 0 0
190 0 0 0
193 0 0 0
184 0 0 0
222 0 0 0
171 0 0 0
31 0 0 0
73 0 0 0
199 0 0 0
82 0 0 0
84 0 0 0
92 0 0 0
94 0 0 0
99 0 0 0
100 0 0 0
212 0 0 0
214 0 0 0
223 0 0 0
224 0 0 0
107 0 0 0
81 0 0 0
83 0 0 0
109 0 0 0
188 0 0 0
91 0 0 0
117 0 0 0
85 0 0 0
93 0 0 0
95 0 0 0
124 0 0 0
125 0 0 0
204 0 0 0
237 0 0 0
230 0 0 0
205 0 0 0
211 0 0 0
247 0 0 0
213 0 0 0
240 0 0 0
215 0 0 0
221 0 0 0
249 0 0 0
225 0 0 0
106 0 0 0
7 0 0 0
108 0 0 0
9 0 0 0
110 0 0 0
17 0 0 0
116 0 0 0
119 0 0 0
19 0 0 0
120 0 0 0
24 0 0 0
228 0 0 0
25 0 0 0
229 0 0 0
29 0 0 0
139 0 0 0
200 0 0 0
147 0 0 0
236 0 0 0
173 0 0 0
238 0 0 0
141 0 0 0
246 0 0 0
248 0 0 0
250 0 0 0
