LAMMPS data file via write_data, version 22 Jul 2025, timestep = 19084, units = metal

250 atoms
1 atom types

-0.06583980129014344 15.891817801290141 xlo xhi
0 15.825978000000001 ylo yhi
0 15.825978000000001 zlo zhi

Masses

1 183.841

Atoms # atomic

11 1 1.7037782955396745 1.5431298692706223 1.5149647418794927 0 0 0
4 1 4.891084168567457 1.536690589037924 1.535797076538304 0 0 0
12 1 1.6927199600964964 4.700933382945149 1.532380815705158 0 0 0
14 1 4.888201143261035 4.70237036883241 1.5492333126289903 0 0 0
126 1 1.668189938201674 7.881233889838312 1.627032352519512 0 0 0
132 1 4.866895156700342 7.867843356101246 1.5618813544685248 0 0 0
80 1 4.889973810003513 14.181614727137939 7.876949370736571 0 -1 0
46 1 1.7189396693015841 10.973887855401884 1.4514842176146583 -1 0 0
196 1 3.3966761149876885 0.0029435458610258536 6.35149819403366 0 1 0
134 1 4.850604093359886 11.016738204006126 1.5429369499184065 0 0 0
142 1 1.7275131972717448 14.195684455094868 1.5500175181043014 0 0 0
144 1 4.874243878263177 14.187454223324899 1.5334858367679152 0 0 0
52 1 1.7283770476508185 1.5508165506784208 4.688662356462061 0 0 0
182 1 3.2704595356399815 12.598915723291443 6.264331426449353 0 0 0
58 1 4.906249554268997 1.5502231003696365 4.713365797747896 0 0 0
38 1 0.11325759384499831 3.103698559588916 3.0605142213886736 0 0 0
37 1 1.6978177788019804 4.697807917260986 4.69806145503967 0 0 0
39 1 4.89691837835699 4.713291119471086 4.714174988143026 0 0 0
185 1 3.3024210185938125 3.1264191361037796 3.116434092608531 0 1 0
40 1 6.483845915101723 3.123889683244516 3.1259385425541115 0 0 0
180 1 0.1046371040657787 6.278576919256433 3.133169284780273 0 0 0
151 1 1.6945836840374735 7.853073116324082 4.725727991269592 1 0 0
47 1 3.2906944298519614 6.2906801402610855 3.1416784676199496 0 0 0
152 1 4.868506035489982 7.881535207591785 4.710566067673454 0 0 0
48 1 6.479886048445481 6.2834309989358825 3.1319158495976214 0 0 0
156 1 0.10372603735662506 9.50185602674583 3.1940601394071795 0 0 0
22 1 3.252658483892372 9.483576186112057 3.1520822525743513 0 0 0
160 1 6.448764425329147 9.433106746118584 3.134944729881195 0 0 0
166 1 0.5160078704649349 12.546445485088276 3.287298541538781 0 0 0
170 1 4.8967538071136385 11.032073562997718 4.711354733859086 0 0 0
232 1 3.2881601943863856 12.602897082084239 3.1450534983788416 0 0 0
45 1 6.441111444826073 12.60934008114475 3.119023575691959 0 0 0
26 1 0.19712884278656675 15.769938262186532 3.1179199523891494 0 -1 0
167 1 1.7955233551353937 14.332020731090926 4.803537740574424 0 0 0
169 1 3.3250669303818325 15.788590483371424 3.12674966312683 0 0 0
192 1 4.886973769464683 14.196870083456611 4.7175218325089325 0 0 0
159 1 6.4687573980782584 15.777063690493696 3.118842166193152 0 -1 0
51 1 0.9494529477417748 0.7267109760611181 7.102409161160997 0 0 0
97 1 1.676770222806327 14.124396399451463 7.857256734105403 0 0 0
56 1 0.5563040938169511 3.3850682626353867 6.723886899770792 0 0 0
34 1 6.481313694762949 15.791860982121273 6.307568485056826 0 -1 0
57 1 3.3301955780101022 3.1425536914466883 6.281459803142488 0 0 0
9 1 6.47205524419088 12.618137727422368 6.292484538960049 0 -1 0
41 1 6.504313443460191 3.12806440116891 6.289830822496176 0 0 0
61 1 0.12840609121726707 6.30681041785521 6.325727429536307 0 0 0
186 1 1.712790634308606 7.901976949679295 7.878788985577077 0 0 0
62 1 3.3075904264607163 6.29410794161676 6.303537963388652 0 0 0
178 1 4.900335343396133 7.9070965817766234 7.838222393546832 0 0 0
63 1 6.4964649859312535 6.29387721951372 6.2820457362394695 0 0 0
176 1 0.11473969106705924 9.473233169589928 6.27887766379495 0 0 0
177 1 3.269263111212553 9.479837741339685 6.270097374947375 0 0 0
161 1 6.473502044984255 9.454995670353117 6.286751619863289 0 0 0
210 1 4.87324355011688 11.04552213298188 7.857792991994328 0 0 0
174 1 0.10338896913575045 12.572554007247286 6.248757273678165 1 0 0
127 1 3.273662981423249 6.2891518555114265 0.007187375111370865 0 0 0
191 1 1.6936681515341927 11.036381358504634 7.889377376763682 0 0 0
49 1 0.11077929871143713 12.663438417419302 0.015624300621610736 0 0 0
72 1 4.944153608205207 4.707684879977253 7.905284528550814 0 0 0
35 1 2.3564563179117224 2.1285957460365736 8.537673993186523 0 0 0
86 1 0.08735443943126406 3.117069860657444 9.509819885118938 0 0 0
66 1 3.5751103331271925 3.689121029397142 9.997455985866207 0 0 0
90 1 6.610153647170996 3.0621048217986444 9.414765262635429 0 0 0
96 1 0.036620148316617286 6.315976830183621 9.488900184936695 0 0 0
187 1 3.4676547780187708 6.418567163824538 9.521719183761714 0 0 0
98 1 6.573446820168183 6.381721156171237 9.380039052448653 0 0 0
206 1 0.09966376123305377 9.455617669503035 9.44866315146748 0 0 0
208 1 3.301403256773343 9.472968923923068 9.452657366169863 0 0 0
175 1 6.487220112510457 9.466854668591328 9.432419659661923 0 0 0
216 1 0.1112427681772162 12.619243269480098 9.47235939536704 0 0 0
218 1 3.2906084001393063 12.62177541901401 9.462158894267757 0 0 0
220 1 6.472679315473862 12.624135164709706 9.45921401506268 0 0 0
24 1 0.15562389454556078 15.814532442743866 9.542486307675377 0 -1 -1
76 1 3.288299016816022 15.687723986092044 9.443951473520068 0 -1 0
68 1 6.48009056032316 15.767986271956962 9.472126611648429 0 -1 0
77 1 1.7317865942436168 1.5614832049729237 11.145333724878673 0 0 0
79 1 4.875412781150195 1.5437894659814382 11.017035719853242 0 0 0
87 1 1.458071826292145 4.757736184633053 11.159510565847842 0 0 0
111 1 0.06155410562389349 3.1087261340010874 12.70543399221547 0 0 0
104 1 3.342637493004738 3.131245074267442 12.650699320231604 0 0 0
89 1 5.572798026783026 4.726270071758811 11.07836057849645 0 0 0
115 1 6.53056654827726 2.9977583240157597 12.709872122083148 0 0 0
201 1 1.7022041983257223 7.835848508118834 11.002765020869028 0 0 0
67 1 4.930477630710032 1.5805678781573236 7.935382718374136 0 0 0
123 1 4.930711339239968 7.900340992609873 11.058646984954741 0 0 0
157 1 3.613222096132874 5.8684061153500755 12.214554355477627 0 0 0
135 1 6.61678820905314 6.3851143412042655 12.70624470663913 0 0 -1
231 1 0.12066639675108407 9.409329157064862 12.583638997568585 0 0 0
233 1 3.265432954869851 9.479397862253645 12.615258576295117 0 0 0
203 1 6.426867154773935 9.404519519918958 12.559650073727102 0 0 0
243 1 1.6915775895249219 11.038320139738559 11.038892519595489 0 0 0
241 1 0.11469207701056944 12.628090572328729 12.623985112659916 0 0 0
207 1 3.282644226277591 12.607600535808933 12.619921451596491 0 0 0
209 1 4.883102586890179 11.052533136353626 11.030638561904173 0 0 0
245 1 6.454617886780009 12.630549939926894 12.608477948430489 0 0 0
168 1 0.08357362621142986 15.779138881750344 12.638659739403314 0 -1 0
217 1 1.713466016544033 14.211602589287805 11.072863959727593 0 0 0
105 1 4.872306321651377 14.217306100541188 11.062515909046917 0 -1 0
244 1 6.501830501276523 15.778012339705008 12.616109383639138 0 0 0
102 1 1.717204053870682 1.5193284715882294 14.18893914830253 0 0 0
5 1 4.867110761249703 1.495872815949422 14.193661442618406 0 0 -1
113 1 1.753145940839612 4.661700249777365 14.194018876560097 0 0 0
110 1 0.09797762246653567 3.1193284664877883 15.754638995251982 1 0 0
114 1 4.927016248445449 4.699532947892281 14.224327255630897 0 0 0
13 1 3.302301205385359 3.1074039073362094 15.782452099144209 0 0 -1
15 1 6.480302774173457 3.106023631041677 15.78977411822834 0 0 -1
122 1 2.1620473186853544 7.304840765351896 13.649496240638966 0 0 0
21 1 0.09220386133353414 6.19621642661848 15.733936158641601 0 0 -1
235 1 4.890721168682658 7.833141654320027 14.188596090260951 0 0 0
23 1 6.485366977948469 6.282792912689038 15.807611308035227 0 0 -1
226 1 0.795322899132561 8.736156862385576 15.121124981889464 0 0 0
133 1 3.3204923912566673 9.403366650763687 15.757241114793194 0 0 -1
158 1 6.449432372714994 9.425527672941714 15.774765825637404 0 0 -1
143 1 1.6620417492714308 11.080683536773465 14.221087804282577 0 0 -1
183 1 3.2866794438585645 12.621091956934515 15.777228076250983 0 0 0
234 1 4.85000707922473 11.024658140513267 14.186582737900853 0 0 0
145 1 6.426132806735144 12.59208110961725 15.750532959811133 0 0 -1
242 1 1.713522355807943 14.221731719241397 14.193411768100601 0 0 0
1 1 0.12130656363687121 15.78884181373872 15.774645735658574 0 -1 -1
27 1 4.859664505531199 14.214959152236428 14.178344587365473 0 0 0
3 1 3.2948582904506383 15.77661403889517 15.80199690961572 0 -1 -1
146 1 6.463821758345538 15.776791790007131 15.76696940258424 0 0 -1
71 1 1.885933778286588 4.961276822769955 8.153647397925296 0 0 0
236 1 7.903746897716204 10.882199218222773 14.03137138596878 0 0 0
6 1 8.06842626475905 1.5441666270502497 1.5412853434828804 0 0 0
8 1 11.267002029683107 1.7209408550884795 1.4998083060482186 0 0 0
10 1 14.429398605413041 1.5105650964599004 1.512558165779368 0 0 0
16 1 8.081098555851009 4.699908140537199 1.5452502184919825 0 0 0
18 1 11.292442225589527 4.697397209413377 1.5387981200647083 0 0 0
20 1 14.465477254864348 4.681263629370732 1.564128616818455 0 0 0
128 1 8.069362862869237 7.8547751768486025 1.5543880005085868 0 0 0
129 1 11.273365508852617 7.832105811196081 1.538388429087669 0 0 0
130 1 14.490338899189672 7.772463787651504 1.5185018883126227 0 0 0
131 1 15.26508985306803 10.131771594494413 0.6486352127443944 -1 0 0
136 1 7.983249114556963 10.973166867348585 1.553812189033832 0 0 0
137 1 11.144958010686054 10.933630752594615 1.4596860374600045 0 0 0
140 1 14.215732129433434 11.701881644523237 2.2189753751960706 0 0 0
112 1 8.013195711838543 14.176764902897697 1.487507513872884 0 0 0
148 1 10.830643169760595 13.708590366673763 1.006107817570429 0 0 0
150 1 14.475432744898194 14.291388477709592 1.5629472170192082 0 0 0
54 1 8.072092890617194 1.5388697749359528 4.70349852477311 0 0 0
44 1 11.243111870210672 1.502467805978114 4.669698673274333 0 0 0
36 1 13.668837982500605 0.49367570580947956 3.914558376230007 -1 0 0
42 1 9.667098422170154 3.1258647218566487 3.132314082646959 0 0 0
64 1 8.086003124895068 4.7058886624813745 4.7083917346848185 0 0 0
227 1 12.910786967105139 3.1022979905764765 3.159628314156219 0 0 0
43 1 11.283869319846113 4.694489150056463 4.699624080423447 0 0 0
65 1 14.49974197641705 4.72143410119141 4.742878527574148 0 0 0
88 1 9.679465856461022 6.2771463489468955 3.1253317152973414 0 0 0
153 1 8.07774548133553 7.864362623127229 4.703459782951846 0 0 0
50 1 12.877620968278295 6.277259761753399 3.124971658838619 0 0 0
154 1 11.282918578299496 7.862275804389878 4.69535390897013 0 0 0
155 1 14.471060135407257 7.876174920575725 4.702609451891281 0 0 0
55 1 9.659342814101072 9.439332358960746 3.1267983208992374 0 0 0
164 1 12.886912459133207 9.477146164557212 3.0596490111390136 0 0 0
19 1 8.048023417451539 11.013965223087974 4.724341924449575 0 0 0
172 1 9.47204863869047 12.600841750780983 3.103242515688031 0 0 0
138 1 12.089540140113494 12.70033522239819 3.090970038312341 0 0 0
162 1 11.228354857072334 10.949013764226342 4.767246336208027 0 0 0
165 1 14.372256904081269 11.001915314371857 4.774259533639776 0 0 0
32 1 9.585339957976297 15.743442173082064 3.0987550247813096 0 -1 0
171 1 8.039547309691168 14.20613280248232 4.721616776447562 0 0 0
224 1 12.10375346368183 15.27022234973255 2.399109060390157 0 -1 0
30 1 11.21748933318555 14.371689571322213 4.836435180794232 0 0 0
197 1 14.188592746466004 13.648113745518783 4.175988675824299 0 -1 0
31 1 8.104776154499762 1.5261713315954466 7.871089665333104 0 0 0
53 1 11.26952613886965 1.5311896682587482 7.884349761881551 0 -1 0
75 1 14.463501732081136 4.687248762503612 7.867521950881169 0 0 0
92 1 8.111363779834438 4.71318683969933 7.8752586402249385 0 0 0
59 1 9.67909259645221 3.121931202353182 6.286416721310653 0 0 0
60 1 12.813273649695105 3.103868982712747 6.293167966165684 0 0 0
74 1 11.28424354074988 4.704761295764511 7.874293167290698 0 0 0
78 1 15.411892038011189 15.206375819449658 5.697512448161446 0 -1 0
179 1 8.112883979382003 7.895606415296234 7.843821508414406 0 0 0
181 1 9.692117576951503 6.283995960289961 6.280956918852216 0 0 0
73 1 12.879456669592534 6.281710170201681 6.29042382681883 0 0 0
189 1 11.284968654892563 7.870708000311217 7.867898392846488 0 0 0
190 1 14.471722142342998 7.88024798563014 7.867025858408647 0 0 0
118 1 9.66410646034436 9.439118571281776 6.2998708674206085 0 0 0
194 1 12.862613935158302 9.432335728557545 6.305313013473833 0 0 0
184 1 9.67642815246142 12.6263211984089 6.267922447010993 0 0 0
193 1 8.078673132797906 11.046181813666829 7.8651292727436735 0 0 0
163 1 12.8601589000972 12.661909678214482 6.2948040419214495 0 0 0
222 1 11.27425864677649 11.041328095081786 7.872422576694834 0 0 0
195 1 14.467039187785296 11.044382063889152 7.8711809348640625 0 0 0
69 1 9.630130722295254 15.815269393145119 6.329780154947387 0 -1 0
198 1 8.076259868972636 14.193897187470666 7.880138871947211 0 0 0
33 1 12.865485383059022 15.787292800995791 6.383026805190318 0 -1 0
103 1 15.010084455395887 2.064742774482049 5.246700603137389 -1 -1 0
199 1 11.264541308880949 14.20203341678549 7.908142383627589 0 0 0
239 1 14.462807293062777 1.529216755771767 7.905749892151118 0 0 0
81 1 9.71739699818301 3.1122008555265728 9.453916844274532 0 0 0
94 1 12.87090792332286 3.113402133246681 9.467710749443203 0 0 0
99 1 9.71543345701671 6.2988976601380315 9.444842118625377 0 0 0
100 1 12.870656345315387 6.289293033550046 9.457627121568926 0 0 0
119 1 9.685895894074068 9.457030139088834 9.44961215628412 0 0 0
214 1 12.872130298451493 9.453367429803754 9.454003320534518 0 0 0
223 1 9.670700254013706 12.614471961441081 9.452218524026975 0 0 0
213 1 12.868570204168957 12.61498240199121 9.465340470665673 0 0 0
82 1 9.677067737108967 15.780257255748385 9.477182709447243 0 -1 0
84 1 12.877927527250998 15.784077725620994 9.493738897084034 0 -1 0
70 1 14.492100214446136 14.205036072564475 7.959090186842186 0 -1 0
219 1 8.095021601904827 1.5336135005179026 11.05151240894341 0 0 0
83 1 11.2886793456378 1.5400808084813553 11.05742320893155 0 0 0
188 1 14.472240813402896 1.5486244378923777 11.076574482328791 0 0 0
120 1 9.704329070757998 3.1059983346202538 12.63203508592885 0 0 0
91 1 8.220011558355502 4.70675748756 11.04108246011055 0 0 0
85 1 12.890753687480965 3.135573938637626 12.654735224172752 0 0 0
93 1 11.305268259760721 4.701053174877773 11.053262124558831 0 0 0
95 1 14.42950010968566 4.69588849020754 11.034182137436494 0 0 0
124 1 9.716285722024592 6.294916311706674 12.631530490662412 0 0 0
25 1 8.11321295383959 7.876610659041 11.029614344756576 0 0 -1
125 1 12.877215466346149 6.273212584558624 12.65236311963455 0 0 0
204 1 11.287826678509726 7.865459110870458 11.040680625931813 0 0 0
205 1 14.449981494708116 7.867059393726826 11.05863784663038 0 0 0
237 1 9.679913471034398 9.447612536617239 12.610661655218896 0 0 0
230 1 12.853618548235117 9.449307957121688 12.609282897324452 0 0 0
211 1 8.067192157715944 11.02784266310807 11.016061378931983 0 0 0
247 1 9.648078162410696 12.59286734241235 12.603573088264968 0 0 0
212 1 11.269727176100387 11.033849325652007 11.03273710168473 0 0 0
240 1 12.867732597296925 12.611866912780316 12.620446563153267 0 0 0
215 1 14.466869930097422 11.031883516977123 11.032375841457197 0 0 0
107 1 9.681266910646587 15.772435794997266 12.629081540767917 0 -1 0
221 1 8.07308246554993 14.19336118688583 11.038781784778127 0 0 0
249 1 11.268861706429888 14.19120093819965 11.046208820741205 0 0 0
225 1 12.865377962194104 15.776699765830186 12.625720067144899 0 0 0
108 1 14.473835520883755 14.197665606996615 11.057300359780122 0 0 0
106 1 8.101873020198633 1.5079271466651465 14.23155823925665 0 0 0
109 1 11.28679390154387 1.5498912463917223 14.201630383152239 0 0 0
2 1 14.464659730095809 1.5028059167278232 14.215030465924244 0 0 0
116 1 8.08271191000806 4.694194200799606 14.194624396659277 0 0 0
17 1 9.660805093187447 3.1520316117717497 15.76745232381407 0 0 -1
228 1 12.910276733847859 3.153498890101691 15.747610382178273 0 0 0
117 1 11.255740690296069 4.699039967007816 14.210052371754154 0 0 0
202 1 8.106127243064627 7.882773245044926 14.229446410707517 0 0 0
28 1 9.679133304706715 6.274754086058295 15.790423936110626 0 0 -1
173 1 11.272122907687278 7.860181423333459 14.209883204729344 0 0 0
229 1 12.885529048607076 6.2499215310244045 15.762968256860173 0 0 0
29 1 9.619750875920738 9.414651768339382 15.758856688515692 0 0 0
121 1 15.852858267890948 6.256667519947898 12.754490417368972 -1 0 0
200 1 14.384228510002783 7.945607193022207 14.250877555875826 0 0 0
101 1 14.473552371461263 14.177824752338081 14.209259670084728 -1 -1 0
147 1 9.3206765966205 12.281576006866093 15.5330767457788 0 0 -1
139 1 12.793661461969666 9.446825178491723 15.802180861282471 0 0 -1
238 1 11.276047582677176 11.036244735738338 14.19383981539894 0 0 0
141 1 14.492835709686055 11.00597614931226 14.113452934349894 -1 0 -1
7 1 9.68536922955498 0.010223178717955332 15.802245236867439 0 0 -1
246 1 8.061661662624681 14.197493994083828 14.193891044567232 0 0 0
250 1 12.850934682149637 15.760524403560035 15.713896916099928 0 0 0
248 1 11.252328299480927 14.165665213415737 14.176619280425431 0 0 0
149 1 12.980676019925903 12.531995841225605 15.808937777303733 0 0 -1

Velocities

11 0 0 0
4 0 0 0
12 0 0 0
14 0 0 0
126 0 0 0
132 0 0 0
80 0 0 0
46 0 0 0
196 0 0 0
134 0 0 0
142 0 0 0
144 0 0 0
52 0 0 0
182 0 0 0
58 0 0 0
38 0 0 0
37 0 0 0
39 0 0 0
185 0 0 0
40 0 0 0
180 0 0 0
151 0 0 0
47 0 0 0
152 0 0 0
48 0 0 0
156 0 0 0
22 0 0 0
160 0 0 0
166 0 0 0
170 0 0 0
232 0 0 0
45 0 0 0
26 0 0 0
167 0 0 0
169 0 0 0
192 0 0 0
159 0 0 0
51 0 0 0
97 0 0 0
56 0 0 0
34 0 0 0
57 0 0 0
9 0 0 0
41 0 0 0
61 0 0 0
186 0 0 0
62 0 0 0
178 0 0 0
63 0 0 0
176 0 0 0
177 0 0 0
161 0 0 0
210 0 0 0
174 0 0 0
127 0 0 0
191 0 0 0
49 0 0 0
72 0 0 0
35 0 0 0
86 0 0 0
66 0 0 0
90 0 0 0
96 0 0 0
187 0 0 0
98 0 0 0
206 0 0 0
208 0 0 0
175 0 0 0
216 0 0 0
218 0 0 0
220 0 0 0
24 0 0 0
76 0 0 0
68 0 0 0
77 0 0 0
79 0 0 0
87 0 0 0
111 0 0 0
104 0 0 0
89 0 0 0
115 0 0 0
201 0 0 0
67 0 0 0
123 0 0 0
157 0 0 0
135 0 0 0
231 0 0 0
233 0 0 0
203 0 0 0
243 0 0 0
241 0 0 0
207 0 0 0
209 0 0 0
245 0 0 0
168 0 0 0
217 0 0 0
105 0 0 0
244 0 0 0
102 0 0 0
5 0 0 0
113 0 0 0
110 0 0 0
114 0 0 0
13 0 0 0
15 0 0 0
122 0 0 0
21 0 0 0
235 0 0 0
23 0 0 0
226 0 0 0
133 0 0 0
158 0 0 0
143 0 0 0
183 0 0 0
234 0 0 0
145 0 0 0
242 0 0 0
1 0 0 0
27 0 0 0
3 0 0 0
146 0 0 0
71 0 0 0
236 0 0 0
6 0 0 0
8 0 0 0
10 0 0 0
16 0 0 0
18 0 0 0
20 0 0 0
128 0 0 0
129 0 0 0
130 0 0 0
131 0 0 0
136 0 0 0
137 0 0 0
140 0 0 0
112 0 0 0
148 0 0 0
150 0 0 0
54 0 0 0
44 0 0 0
36 0 0 0
42 0 0 0
64 0 0 0
227 0 0 0
43 0 0 0
65 0 0 0
88 0 0 0
153 0 0 0
50 0 0 0
154 0 0 0
155 0 0 0
55 0 0 0
164 0 0 0
19 0 0 0
172 0 0 0
138 0 0 0
162 0 0 0
165 0 0 0
32 0 0 0
171 0 0 0
224 0 0 0
30 0 0 0
197 0 0 0
31 0 0 0
53 0 0 0
75 0 0 0
92 0 0 0
59 0 0 0
60 0 0 0
74 0 0 0
78 0 0 0
179 0 0 0
181 0 0 0
73 0 0 0
189 0 0 0
190 0 0 0
118 0 0 0
194 0 0 0
184 0 0 0
193 0 0 0
163 0 0 0
222 0 0 0
195 0 0 0
69 0 0 0
198 0 0 0
33 0 0 0
103 0 0 0
199 0 0 0
239 0 0 0
81 0 0 0
94 0 0 0
99 0 0 0
100 0 0 0
119 0 0 0
214 0 0 0
223 0 0 0
213 0 0 0
82 0 0 0
84 0 0 0
70 0 0 0
219 0 0 0
83 0 0 0
188 0 0 0
120 0 0 0
91 0 0 0
85 0 0 0
93 0 0 0
95 0 0 0
124 0 0 0
25 0 0 0
125 0 0 0
204 0 0 0
205 0 0 0
237 0 0 0
230 0 0 0
211 0 0 0
247 0 0 0
212 0 0 0
240 0 0 0
215 0 0 0
107 0 0 0
221 0 0 0
249 0 0 0
225 0 0 0
108 0 0 0
106 0 0 0
109 0 0 0
2 0 0 0
116 0 0 0
17 0 0 0
228 0 0 0
117 0 0 0
202 0 0 0
28 0 0 0
173 0 0 0
229 0 0 0
29 0 0 0
121 0 0 0
200 0 0 0
101 0 0 0
147 0 0 0
139 0 0 0
238 0 0 0
141 0 0 0
7 0 0 0
246 0 0 0
250 0 0 0
248 0 0 0
149 0 0 0
