LAMMPS data file via write_data, version 22 Jul 2025, timestep = 14376, units = metal

250 atoms
1 atom types

-2.975338167927611e-06 15.82598097533816 xlo xhi
0 15.825978000000001 ylo yhi
0 15.825978000000001 zlo zhi

Masses

1 183.841

Atoms # atomic

2 1 1.6905030463153858 1.5419955984017752 1.624755960197118 0 0 0
4 1 4.855678745069167 1.541927098551954 1.6247666117659179 0 0 0
12 1 1.6906110158317003 4.707180323904693 1.624646061907676 0 0 0
11 1 0.10786929556684742 3.1247334967753364 0.04219241567874098 0 0 0
14 1 4.855735258742662 4.707167668045798 1.6246467194991403 0 0 0
13 1 3.2730859082785257 3.124614972520646 0.04208423222782915 0 0 0
15 1 6.43822148901034 3.1246653634161747 0.042168643168413164 0 0 0
126 1 1.6906275988450947 7.872393228126628 1.6246085310626721 0 0 0
21 1 0.10800088110052844 6.289882047364378 0.042057396504034325 0 0 0
127 1 3.2731549348074362 6.289802741743927 0.04198177556278466 0 0 0
132 1 4.855794453105232 7.872371036868067 1.624603405943348 0 0 0
23 1 6.438301685508507 6.289852075612111 0.04204961165505238 0 0 0
131 1 0.10799111852072912 9.45507981430234 0.04199767820998734 0 0 0
133 1 3.273165915321688 9.455017586065571 0.04194457938454327 0 0 0
158 1 6.438337430276698 9.45502007590691 0.04200049517071918 0 0 0
46 1 1.6905814988245413 11.037587266335505 1.6246187187728822 -1 0 0
49 1 0.10788676478931926 12.620300722113049 0.04215399607173797 0 0 0
183 1 3.2730912036777706 12.62017738085295 0.0420522489964919 0 0 1
134 1 4.855766944732022 11.037512818438666 1.6246150360868186 0 0 0
145 1 6.438295958100506 12.620157120312822 0.042124060735146636 0 0 0
142 1 1.6905075431722083 14.202753812027943 1.6247167525472688 0 0 0
1 1 0.10779374600620394 15.785526371941403 0.04222490451603463 0 -1 0
3 1 3.2730519603973454 15.785371317001944 0.042118113198968174 0 -1 0
144 1 4.85569732748871 14.202680967234054 1.6247134060940251 0 0 0
146 1 6.438184502538785 15.785398353393596 0.042214388267791066 0 0 0
52 1 1.6905588104736355 1.5418896648217773 4.789917791178351 0 0 0
58 1 4.85572496614088 1.5418252374530077 4.789957587733153 0 0 0
38 1 0.10800433565013734 3.1245652791491643 3.2073553298028514 0 0 0
37 1 1.6906548136382271 4.707107144618487 4.7898831933995965 0 0 0
39 1 4.855779069893045 4.707093567947478 4.789894718697657 0 0 0
185 1 3.273150057314288 3.1244816995231792 3.20731500327699 0 1 0
40 1 6.4383181291236875 3.1245206940507817 3.2073548908255964 0 0 0
180 1 0.10809109749916507 6.289816572731126 3.20726690648832 0 0 0
151 1 1.6906608294007475 7.872342557146553 4.7898069144607245 1 0 0
47 1 3.27322076898951 6.289736883509345 3.207222575291464 0 0 0
152 1 4.855838419735614 7.8723101035108485 4.789805938608449 0 0 0
48 1 6.438410340493482 6.289762259623664 3.2072424615886983 0 0 0
156 1 0.10806272318126126 9.454981617013816 3.2072459282974335 0 0 0
22 1 3.273224366027113 9.454917177426674 3.207222567563221 0 0 0
160 1 6.438423782351538 9.454917613506582 3.207233980321944 0 0 0
157 1 1.690618343767675 11.037546655933554 4.789862852177218 0 0 0
166 1 0.1079828709038676 12.62018102947288 3.2073197523307178 0 0 0
168 1 3.2731347274896976 12.620079251830855 3.2072794161334697 0 0 0
170 1 4.855800061610879 11.037475381714376 4.789877354241274 0 0 0
45 1 6.438383535521818 12.620048398772676 3.207314303284881 0 0 0
26 1 0.10792625469806258 15.785380843561423 3.207389728211416 0 -1 0
167 1 1.6905387196416555 14.202687638731037 4.7899413839306115 0 0 0
169 1 3.273127263998936 15.785243909943029 3.2073357275759293 0 0 0
232 1 4.855738147741972 14.202619694375926 4.789957480497559 0 0 0
159 1 6.438276800149614 15.785262281082064 3.207403792735787 0 -1 0
56 1 0.10798248836937396 3.124545068874929 6.37253946936384 0 0 0
57 1 3.2731808524533914 3.1244812565313858 6.372476474723571 0 0 0
41 1 6.438348583089901 3.12450385926817 6.372514328763613 0 0 0
61 1 0.10805805732412399 6.289769594490446 6.372476358828288 0 0 0
62 1 3.2732405454181963 6.289708299344723 6.372410466303906 0 0 0
63 1 6.438418600211159 6.2897305134405315 6.372438893343312 0 0 0
176 1 0.10802533456693908 9.455009169960475 6.3724851850383475 0 0 0
177 1 3.273253548704124 9.454937131290842 6.372414216007966 0 0 0
178 1 6.438428665005811 9.454942579541177 6.37245482807463 0 0 0
174 1 0.10796436548701514 12.620203863523198 6.372562853971829 1 0 0
182 1 3.273154322573833 12.620112091610565 6.372500312849407 0 0 0
192 1 6.438408684906704 12.620083251912646 6.372541981317692 0 0 0
51 1 0.10789690455792306 15.785370337998405 6.372638827898302 0 -1 0
196 1 3.2731448638160194 15.785230784293052 6.372554581913352 0 0 0
53 1 6.438334607814218 15.78523479093628 6.372584878965208 0 -1 0
35 1 1.6904803052873423 1.5419665007170171 7.9551938514884455 0 0 0
67 1 4.855736679322747 1.5418698734821408 7.955104825555943 0 0 0
86 1 0.10789697463922655 3.124669693419688 9.53776862090854 0 0 0
71 1 1.6905894545717068 4.707153964140633 7.955057405712021 0 0 0
66 1 3.273090805421653 3.1245586299548553 9.537679162154486 0 0 0
72 1 4.855769961597863 4.707131130441796 7.954993492993382 0 0 0
90 1 6.4383061068831475 3.124597803303902 9.537668111318952 0 0 0
96 1 0.10799896225546861 6.28987739491968 9.537643083936327 0 0 0
186 1 1.690598562017661 7.872399859403325 7.95504590897846 0 0 0
97 1 3.2731420634925943 6.289790272693136 9.537576144837907 0 0 0
187 1 4.855814034701356 7.872377627325487 7.954979044897237 0 0 0
98 1 6.438378717590988 6.289828244974619 9.537556373252881 0 0 0
206 1 0.10798362995002399 9.455102966578826 9.53765727883567 0 0 0
208 1 3.273139071865784 9.45504142944918 9.53760381570756 0 0 0
175 1 6.438408656003298 9.455041541600238 9.537581413581645 0 0 0
216 1 0.10791523579703084 12.620318572837826 9.537790675887054 0 0 0
242 1 1.690386203534203 14.202917360878956 14.285558071314377 0 0 0
210 1 4.855785898019461 11.037534811529556 7.955041317112614 0 0 0
218 1 3.2730610017007153 12.620219475093164 9.537728302179616 0 0 0
220 1 6.438374336365561 12.620197438878188 9.537716978882074 0 0 0
24 1 0.1078295991076321 15.78553098460675 9.537834778556816 0 -1 -1
27 1 4.855623945536535 14.20283478909779 14.285491504472033 0 0 0
78 1 3.2730426658173677 15.785391612871262 9.537760829420845 0 -1 0
80 1 4.85573023098671 14.202731257279817 7.955128111373739 0 -1 0
68 1 6.438285222729729 15.785387165299928 9.537735022951367 0 -1 0
77 1 1.690393431451332 1.5421297562154084 11.120364214244718 0 0 0
79 1 4.855637813445611 1.5420236337630724 11.120312731027145 0 0 0
87 1 1.6905281921090365 4.707243589971278 11.120231152200352 0 0 0
111 1 0.1077837567361352 3.1247690738602314 12.70299096547979 0 0 0
89 1 4.855692739083466 4.707224283921853 11.120183493885595 0 0 0
104 1 3.273052790226775 3.1246516888760514 12.702860275107552 0 0 0
115 1 6.4382024805855185 3.1247116911702055 12.702888896954446 0 0 0
121 1 0.10791934495187014 6.289941177598208 12.702844468267868 0 0 0
201 1 1.6905350503639491 7.872472566075596 11.120170662307299 0 0 0
122 1 3.2731383825015454 6.289845286028138 12.702726834468667 0 0 0
123 1 4.85575024373435 7.87244587493666 11.120127354282374 0 0 0
135 1 6.43827888960314 6.2899218606073575 12.702752872379879 0 0 -1
231 1 0.10789605093269324 9.455151832785427 12.702865308217445 0 0 0
233 1 3.2731358355979756 9.455069940951834 12.702747622241274 0 0 0
203 1 6.438343158563538 9.455067296961593 12.702754488294154 0 0 0
243 1 1.6904953500277453 11.037746809365569 11.120258159217787 0 0 0
241 1 0.10779995466377883 12.620406149018802 12.70297377563213 0 0 0
207 1 3.2730396083090207 12.620291930352968 12.702855247244605 0 0 0
209 1 4.855718472842402 11.037656353838255 11.120218313131364 0 0 0
245 1 6.438291858220981 12.620254006608894 12.70286396842365 0 0 0
101 1 0.10770763805752012 15.785608420549242 12.70308639472796 0 -1 0
217 1 1.6904091718103547 14.202893698897181 11.120373627609299 0 0 0
103 1 3.2730002396578644 15.785453951213574 12.702953946138981 0 -1 0
105 1 4.855643175913347 14.202817671223686 11.120331954193967 0 -1 0
244 1 6.438172548710619 15.78546765297109 12.702972631665661 0 0 0
102 1 1.6903649429060739 1.542102704852478 14.285557368876672 0 0 0
5 1 4.855609231234091 1.5420233147434006 14.285504421496155 0 0 -1
113 1 1.690513922618004 4.70727117172263 14.285458516273541 0 0 0
114 1 4.855661699999018 4.707273403808431 14.285413106111335 0 0 0
226 1 1.6905483197424904 7.87247105409446 14.285337849008712 0 0 0
235 1 4.855726571020711 7.872472962427611 14.285297431801457 0 0 0
143 1 1.6904921659490584 11.037689624262242 14.285437941225037 0 0 -1
234 1 4.855716192281815 11.037594084357925 14.285370787020678 0 0 0
76 1 1.690485989063942 14.202803756979364 7.955197488076626 0 -1 0
191 1 1.690571421228032 11.03760991515635 7.95509917243138 0 0 0
6 1 8.020793828042244 1.5420487380647832 1.6248784047129905 0 0 0
8 1 11.186015241512342 1.5421487458784977 1.624934906867313 0 0 0
10 1 14.35124465758914 1.5421412705223378 1.6248972015794398 0 0 0
163 1 12.768801748688162 12.62025725220057 6.372616013977429 0 0 0
16 1 8.020876702276386 4.707247972968968 1.624747791298531 0 0 0
18 1 11.18611787300356 4.707339510062702 1.624802631112563 0 0 0
34 1 9.603578482462574 15.785368154810048 6.372643955162223 0 -1 0
20 1 14.351338135825621 4.707318823881937 1.6247739458116832 0 0 0
28 1 9.603498882451131 6.289939172314989 0.04212211739009832 0 0 0
128 1 8.020971386124902 7.872416765038698 1.624680039848722 0 0 0
129 1 11.186210797659545 7.872497548065368 1.6247338025012286 0 0 0
229 1 12.768723505202367 6.289950189638564 0.0421773990445067 0 0 1
130 1 14.35144915732627 7.87246785708775 1.624684045949086 0 0 0
29 1 9.603584699052863 9.45508925660691 0.04205720123394396 0 0 1
139 1 12.768757944419914 9.455155789803598 0.04209848096615218 0 0 0
136 1 8.020961189179074 11.037571004219766 1.6246925178659868 0 0 0
147 1 9.603456265295867 12.620313286228399 0.042217898330482846 0 0 0
137 1 11.18619166328913 11.037651435572538 1.6247250196577845 0 0 0
149 1 12.768635788536951 12.620385194785275 0.04227082952191074 0 0 0
140 1 14.351361838763008 11.037660198776415 1.6246883754806583 0 0 0
33 1 12.768729998869059 15.785422780390219 6.372702244230704 0 -1 0
112 1 8.020833928403164 14.202754375818506 1.6248374057340829 0 0 0
9 1 12.768545663251988 15.785600614740776 0.042359696952179206 0 -1 0
148 1 11.186046992332306 14.202896247641673 1.6248833512649958 0 0 0
150 1 14.351252272044507 14.202883411367939 1.6248478847954817 0 0 0
54 1 8.020927264250941 1.5419295360229026 4.789997711081342 0 0 0
44 1 11.186126369513417 1.542015260014745 4.790052725216926 0 0 0
36 1 14.351359827438495 1.5420011384563193 4.790013979845262 -1 0 0
42 1 9.603490686681969 3.1246168306755244 3.207453015700399 0 0 0
64 1 8.020990254709828 4.707154915415275 4.789937174915825 0 0 0
227 1 12.768733362407641 3.124685320388096 3.2074337178729597 0 0 0
43 1 11.18621541814692 4.707242077057288 4.789996907110022 0 0 0
65 1 14.351442831297925 4.707198508855257 4.789955998547097 0 0 0
88 1 9.603591384021255 6.28987087116263 3.2073540593746364 0 0 0
153 1 8.021068297278958 7.872357969459985 4.78985125974245 0 0 0
50 1 12.768853720521673 6.289885096462378 3.2073439267920185 0 0 0
154 1 11.186293471941653 7.87243226516579 4.789903128002164 0 0 0
155 1 14.351522558251693 7.872411670929557 4.789875951951329 0 0 0
55 1 9.60365502969697 9.45497605319616 3.207321305790988 0 0 0
164 1 12.768878018981262 9.455029048832756 3.207283020575404 0 0 0
172 1 9.60355621737308 12.62015308200668 3.2073982506030063 0 0 0
161 1 8.021057141472186 11.037523321127273 4.789916836043845 0 0 0
138 1 12.768775830980369 12.620225576223019 3.207373301807101 0 0 0
162 1 11.186276410410475 11.03759538465182 4.789947731927743 0 0 0
165 1 14.351433376619696 11.03762508842813 4.78993800792326 0 0 0
32 1 9.603462397938248 15.785393669117045 3.2074934743351866 0 -1 0
171 1 8.02098332519998 14.202657799635253 4.790001013791344 0 0 0
224 1 12.768696053824307 15.78544816016806 3.2074810480712013 0 -1 0
30 1 11.186162032412277 14.202796666603467 4.790051450073903 0 0 0
197 1 14.351347823177575 14.202796430141044 4.790024600317785 0 -1 0
59 1 9.603583135580033 3.124590232351477 6.3725685407945765 0 0 0
60 1 12.768773919806291 3.1246463107448594 6.372601038004421 0 0 0
181 1 9.603661363429952 6.2898096177943135 6.372484880017716 0 0 0
73 1 12.76889271376032 6.289795560533123 6.3725069557089755 0 0 0
118 1 9.603716540791838 9.45500161711912 6.37249619378762 0 0 0
194 1 12.768907803387824 9.45506813300353 6.372529762443975 0 0 0
184 1 9.603641880171923 12.620181452464065 6.372565657553068 0 0 0
7 1 9.603364732113974 15.78554563214572 0.04230336309418473 0 -1 0
19 1 12.768583192659507 3.1248620917183687 0.04232571687273556 0 0 0
17 1 9.603391761805824 3.124777143654148 0.04225311591439434 0 0 0
31 1 8.020928131431775 1.5419901374607388 7.9551869661575205 0 0 0
69 1 11.186096206746749 1.542088893363667 7.955300663641447 0 0 0
239 1 14.351291824796386 1.542074010185781 7.955267407721368 0 0 0
92 1 8.020977113527037 4.707196801624193 7.955058087145667 0 0 0
81 1 9.603462322858602 3.1247271486404684 9.537807796720129 0 0 0
94 1 12.768637985083352 3.124781733034833 9.537869956998172 0 0 0
74 1 11.186190468026712 4.707263232759667 7.955127476022465 0 0 0
75 1 14.351373927818189 4.707236341696464 7.95509981912766 0 0 0
179 1 8.021053716294759 7.8724184774247155 7.955030890898202 0 0 0
99 1 9.603577628137737 6.2899129892105785 9.53764453476321 0 0 0
100 1 12.76877483381356 6.289910043492342 9.53770667057725 0 0 0
189 1 11.186276897310318 7.8724674184900545 7.955090285924034 0 0 0
190 1 14.351459257151516 7.872467818092035 7.955090650221181 0 0 0
119 1 9.603655742199864 9.455087450011769 9.537657198281089 0 0 0
214 1 12.768780688740215 9.455161680422767 9.537729541789897 0 0 0
223 1 9.603530712735951 12.620325757287231 9.537818732741389 0 0 0
193 1 8.021044874933153 11.037595429261321 7.955103254248918 0 0 0
213 1 12.768679170976824 12.620383954244852 9.537879614860563 0 0 0
246 1 8.020801078124563 14.202916916844131 14.285619740129375 0 0 0
250 1 14.351161329981242 14.203057370068716 14.285673851378938 0 0 0
108 1 14.351168200133872 14.202998680865576 11.120497495016 0 0 0
82 1 9.603458580560803 15.78554358694161 9.53787560211035 0 -1 0
198 1 8.020973451519714 14.202778507052015 7.955192710248259 0 0 0
84 1 12.768606084276863 15.785580531077555 9.537941615222623 0 -1 0
248 1 11.185938775654497 14.203085837672452 14.285730947608 0 0 0
70 1 14.351290524349096 14.202915673416873 7.955268437023806 0 -1 0
219 1 8.02079029120394 1.5421702758845215 11.120403657755833 0 0 0
83 1 11.185965399996379 1.5422715421232849 11.120526465514763 0 0 0
188 1 14.35115545519498 1.5422611691827255 11.120509569242673 0 0 0
117 1 9.603346565700068 3.124834183682797 12.7030369602484 0 0 0
91 1 8.020841755549155 4.7073361411823935 11.120267203087634 0 0 0
85 1 12.768566959659676 3.124894307295946 12.703057802590633 0 0 0
93 1 11.186055665546325 4.707417241464459 11.120372160975206 0 0 0
95 1 14.351244226434936 4.707385274803262 11.12036637268171 0 0 0
124 1 9.603460218372181 6.290008149174478 12.702887475260166 0 0 0
25 1 8.020977923038016 7.872501997658514 11.120175374946331 0 0 -1
125 1 12.768710141751404 6.290021104219021 12.702906923477416 0 0 0
204 1 11.186176792665671 7.872568170955456 11.120273911385272 0 0 0
205 1 14.351353399640598 7.872550996684228 11.120283302254395 0 0 0
237 1 9.603565898672406 9.455146645008435 12.702888360636988 0 0 0
230 1 12.768733488110891 9.455233442045122 12.702906349847233 0 0 0
211 1 8.020966097965902 11.037720425764496 11.12027026092292 0 0 0
247 1 9.603424470295815 12.62041884543375 12.703018714581349 0 0 0
212 1 11.186136970109576 11.037822361489635 11.120375170074276 0 0 0
240 1 12.76862294227131 12.620487643122225 12.703020836837162 0 0 0
215 1 14.351258691297028 11.03784549297394 11.120381342212845 0 0 0
107 1 9.603334885791826 15.785627248415556 12.703129779835079 0 -1 0
221 1 8.020841914965168 14.202887129198523 11.120403854147346 0 0 0
109 1 11.185918114434063 1.5422564831159076 14.285722204956409 0 0 0
249 1 11.186008367217674 14.203034668505062 11.12051146433066 0 0 0
225 1 12.768539924367465 15.785670624875705 12.70314274354796 0 0 0
106 1 8.020748739758208 1.5421559135497707 14.285620409180632 0 0 0
110 1 14.351137465908355 1.5422429194836618 14.285675615821418 0 0 0
116 1 8.020814660819246 4.707364577934715 14.2855202410225 0 0 0
228 1 11.186003091582128 4.707456777941467 14.2856252257308 0 0 0
120 1 14.351243431505647 4.707425699309295 14.285584031927375 0 0 0
202 1 8.020926615198519 7.872521217954921 14.28539175264331 0 0 0
173 1 11.1861167357007 7.8725930088782174 14.285476273562121 0 0 0
200 1 14.351370838498859 7.872567188973524 14.285426640656999 0 0 0
236 1 8.020931441668669 11.037674113986565 14.285471996584489 0 0 0
238 1 11.186085930293679 11.037798257755703 14.285576061514618 0 0 0
141 1 14.351273560375349 11.037796384974625 14.28552494523705 -1 0 -1
195 1 14.351375106065117 11.037693930959245 7.955153170927658 0 0 0
222 1 11.186245503195233 11.037671387585226 7.9551658332104065 0 0 0
199 1 11.186130292840145 14.20292309557726 7.955286755851548 0 0 0

Velocities

2 0 0 0
4 0 0 0
12 0 0 0
11 0 0 0
14 0 0 0
13 0 0 0
15 0 0 0
126 0 0 0
21 0 0 0
127 0 0 0
132 0 0 0
23 0 0 0
131 0 0 0
133 0 0 0
158 0 0 0
46 0 0 0
49 0 0 0
183 0 0 0
134 0 0 0
145 0 0 0
142 0 0 0
1 0 0 0
3 0 0 0
144 0 0 0
146 0 0 0
52 0 0 0
58 0 0 0
38 0 0 0
37 0 0 0
39 0 0 0
185 0 0 0
40 0 0 0
180 0 0 0
151 0 0 0
47 0 0 0
152 0 0 0
48 0 0 0
156 0 0 0
22 0 0 0
160 0 0 0
157 0 0 0
166 0 0 0
168 0 0 0
170 0 0 0
45 0 0 0
26 0 0 0
167 0 0 0
169 0 0 0
232 0 0 0
159 0 0 0
56 0 0 0
57 0 0 0
41 0 0 0
61 0 0 0
62 0 0 0
63 0 0 0
176 0 0 0
177 0 0 0
178 0 0 0
174 0 0 0
182 0 0 0
192 0 0 0
51 0 0 0
196 0 0 0
53 0 0 0
35 0 0 0
67 0 0 0
86 0 0 0
71 0 0 0
66 0 0 0
72 0 0 0
90 0 0 0
96 0 0 0
186 0 0 0
97 0 0 0
187 0 0 0
98 0 0 0
206 0 0 0
208 0 0 0
175 0 0 0
216 0 0 0
242 0 0 0
210 0 0 0
218 0 0 0
220 0 0 0
24 0 0 0
27 0 0 0
78 0 0 0
80 0 0 0
68 0 0 0
77 0 0 0
79 0 0 0
87 0 0 0
111 0 0 0
89 0 0 0
104 0 0 0
115 0 0 0
121 0 0 0
201 0 0 0
122 0 0 0
123 0 0 0
135 0 0 0
231 0 0 0
233 0 0 0
203 0 0 0
243 0 0 0
241 0 0 0
207 0 0 0
209 0 0 0
245 0 0 0
101 0 0 0
217 0 0 0
103 0 0 0
105 0 0 0
244 0 0 0
102 0 0 0
5 0 0 0
113 0 0 0
114 0 0 0
226 0 0 0
235 0 0 0
143 0 0 0
234 0 0 0
76 0 0 0
191 0 0 0
6 0 0 0
8 0 0 0
10 0 0 0
163 0 0 0
16 0 0 0
18 0 0 0
34 0 0 0
20 0 0 0
28 0 0 0
128 0 0 0
129 0 0 0
229 0 0 0
130 0 0 0
29 0 0 0
139 0 0 0
136 0 0 0
147 0 0 0
137 0 0 0
149 0 0 0
140 0 0 0
33 0 0 0
112 0 0 0
9 0 0 0
148 0 0 0
150 0 0 0
54 0 0 0
44 0 0 0
36 0 0 0
42 0 0 0
64 0 0 0
227 0 0 0
43 0 0 0
65 0 0 0
88 0 0 0
153 0 0 0
50 0 0 0
154 0 0 0
155 0 0 0
55 0 0 0
164 0 0 0
172 0 0 0
161 0 0 0
138 0 0 0
162 0 0 0
165 0 0 0
32 0 0 0
171 0 0 0
224 0 0 0
30 0 0 0
197 0 0 0
59 0 0 0
60 0 0 0
181 0 0 0
73 0 0 0
118 0 0 0
194 0 0 0
184 0 0 0
7 0 0 0
19 0 0 0
17 0 0 0
31 0 0 0
69 0 0 0
239 0 0 0
92 0 0 0
81 0 0 0
94 0 0 0
74 0 0 0
75 0 0 0
179 0 0 0
99 0 0 0
100 0 0 0
189 0 0 0
190 0 0 0
119 0 0 0
214 0 0 0
223 0 0 0
193 0 0 0
213 0 0 0
246 0 0 0
250 0 0 0
108 0 0 0
82 0 0 0
198 0 0 0
84 0 0 0
248 0 0 0
70 0 0 0
219 0 0 0
83 0 0 0
188 0 0 0
117 0 0 0
91 0 0 0
85 0 0 0
93 0 0 0
95 0 0 0
124 0 0 0
25 0 0 0
125 0 0 0
204 0 0 0
205 0 0 0
237 0 0 0
230 0 0 0
211 0 0 0
247 0 0 0
212 0 0 0
240 0 0 0
215 0 0 0
107 0 0 0
221 0 0 0
109 0 0 0
249 0 0 0
225 0 0 0
106 0 0 0
110 0 0 0
116 0 0 0
228 0 0 0
120 0 0 0
202 0 0 0
173 0 0 0
200 0 0 0
236 0 0 0
238 0 0 0
141 0 0 0
195 0 0 0
222 0 0 0
199 0 0 0
