LAMMPS data file via write_data, version 22 Jul 2025, timestep = 46669, units = metal

250 atoms
1 atom types

-0.02112853393572281 15.8471065339358 xlo xhi
0 15.825978000000001 ylo yhi
0 15.825978000000001 zlo zhi

Masses

1 183.841

Atoms # atomic

11 1 1.4665270561489419 1.7098954952551588 1.8816485390870652 0 0 0
4 1 4.940379739009595 1.4652113706583314 1.6364954085556147 0 0 0
3 1 2.8955615459966273 0.2859882793104637 0.45979861978790365 0 0 0
180 1 1.7037706392585317 4.642740770347683 1.646604689218632 0 0 0
2 1 0.12018688868769234 3.0558703724330054 0.03301859023556801 1 0 1
14 1 4.894914655569784 4.626789820813713 1.6295440599169395 0 0 0
13 1 3.2820486906551865 3.058773137243863 0.07150810679440314 0 0 0
15 1 6.4854498822803714 3.043629125820407 0.043544535502431786 0 0 0
131 1 1.723006003566775 7.791987575389671 1.6291436198103395 0 0 0
12 1 0.13469262019016479 6.2111555984724305 0.04301135341713659 1 0 -1
132 1 4.896952718104532 7.786274864254157 1.6275134043804205 0 0 0
127 1 3.3064107009858246 6.20681075282265 0.046572674437871144 0 0 0
135 1 6.483410630267129 6.203298834810925 0.041585989129804324 0 0 0
207 1 0.13699260991178927 9.369424754362234 0.04114862016899259 0 0 0
133 1 3.3123687067382357 9.359210481361131 0.04099478792436852 0 0 0
158 1 6.484304247574648 9.363178352566674 0.046276583994407795 0 0 0
150 1 0.1321276167795615 12.533208753803676 0.044234782268338144 1 0 0
232 1 1.7209834962872956 10.941621210850807 1.6286070196220381 0 0 0
142 1 3.315769902513131 12.47444020681501 0.037866139453072184 0 0 0
134 1 4.896852893923418 10.946203601792218 1.6327759310860883 0 0 0
145 1 6.460167474605084 12.556843751305871 0.08957503703987026 0 0 0
46 1 1.711745050088872 14.07348123075901 1.6409393529021725 -1 0 0
1 1 0.11640746923427756 15.727511166439191 0.07195594981407179 0 -1 0
83 1 4.872101158508892 14.139952768871629 1.6620792075830246 0 0 0
144 1 6.545028211384728 15.690512743451785 0.03411634837276292 0 0 0
52 1 1.7039586396457835 1.473282249860783 4.812791122904564 0 0 0
185 1 4.894812602561866 1.457067386734709 4.7964656983275615 0 1 0
37 1 1.7278405914324526 4.632713496294557 4.8007636224639665 0 0 0
38 1 0.011117918505794846 3.165489492975922 3.335934722406056 0 0 0
116 1 3.320783859985593 3.0540495005778316 3.224785339490829 0 0 0
152 1 4.89913166174808 4.626541186168314 4.794888341871406 0 0 0
40 1 6.489488261170688 3.0439855498775805 3.2142455077731316 0 0 0
126 1 0.13095705940304952 6.227669183414643 3.218759396783118 0 0 0
157 1 1.7282043350848262 7.803392798620634 4.802732149064012 1 0 0
47 1 3.309251854634127 6.212803116281067 3.213973011492002 0 0 0
212 1 4.891103931041149 7.795789585202673 4.79762924225166 0 0 0
48 1 6.481878741071165 6.206622509953639 3.2084984017617226 0 0 0
156 1 0.1385181876231089 9.373035701335397 3.2146551745341365 0 0 0
22 1 3.3123512145647376 9.369929769706564 3.2153756594886747 0 0 0
160 1 6.483072346762515 9.369081993675556 3.210958785249881 0 0 0
166 1 0.13234515905278188 12.52802682674786 3.220739697763942 0 0 0
176 1 1.7266308542965028 10.952990639086595 4.776017177857472 0 0 0
170 1 4.888322252501965 10.951210800682523 4.802231680678013 0 0 0
86 1 3.3094507805672326 12.53259790383506 3.2206546675386245 0 0 0
45 1 6.479526510983124 12.534740668127252 3.21846979606809 0 0 0
26 1 0.1215831079760961 15.686425928126466 3.2284018406473267 0 -1 0
167 1 1.7206087979059788 14.106975180900937 4.8079440228870665 0 0 0
169 1 3.2809467697771653 15.724407619427705 3.2325302494781316 0 0 0
192 1 4.884809189592466 14.112004720398504 4.803859348584375 0 0 0
159 1 6.483432450646765 15.697523848780655 3.2156975422915672 0 -1 0
71 1 0.12957167284121893 3.0464740858206647 6.39262444738009 0 0 0
57 1 3.310552141910808 3.041495644733487 6.378727979834338 0 0 0
41 1 6.483255900921704 3.0366594707943113 6.373722100239346 0 0 0
75 1 0.15087202903902724 6.210110468160256 6.371835328104844 1 0 0
72 1 3.314004164329566 6.211073950742255 6.373411457656667 0 0 0
63 1 6.4803224468645535 6.201521077672996 6.369139371873301 0 0 0
61 1 0.1667141682628212 9.393341064227128 6.392230519301588 0 0 0
177 1 3.293219285354858 9.390593830016057 6.391790094644719 0 0 0
19 1 6.481389749705876 9.36494064833767 6.367692024948132 0 0 0
174 1 0.1601433483397319 12.513196391118989 6.394853758452025 1 0 0
182 1 3.2913335735828766 12.513602385012266 6.3933851507344 0 0 0
9 1 6.484319273090928 12.52770548913238 6.368498177070496 0 -1 0
78 1 0.13420125766596994 15.69311734711092 6.379353983583167 1 -1 0
196 1 3.3067199943492933 15.69617256489073 6.375423147343176 0 0 0
34 1 6.48159974406087 15.695297700731937 6.373340780301119 0 -1 0
51 1 1.722766980086162 1.4575576934463093 7.958676929924828 0 0 0
227 1 4.896321392510088 1.4533082692383925 7.95385769634555 0 0 0
70 1 1.727767583454462 4.621478806313196 7.960026199328534 0 -1 0
188 1 0.13791490001731885 3.0381232742073236 9.540772298738009 1 0 0
67 1 3.312296128214939 3.039101569821595 9.537685762244347 0 0 0
168 1 4.897775370892218 4.622151712214847 7.955707931498903 0 0 0
55 1 6.484645915766215 3.0386851575652414 9.535596764261609 0 0 0
186 1 1.7294017184878736 7.767909543753237 7.953233438105855 0 0 0
222 1 0.1451593996174588 6.207890128426393 9.539182865246975 0 0 0
178 1 3.313089975842061 6.208729700417348 9.537778683196398 0 0 0
210 1 4.881583589340315 7.791963208855571 7.948806901883968 0 0 0
98 1 6.484781278057287 6.200844603305491 9.531946524063331 0 0 0
203 1 0.16570274678137398 9.388153334555152 9.513603906000636 1 0 0
248 1 3.277832540735108 9.387708730078959 9.509893738863688 0 0 0
209 1 6.435510572104477 9.360490729859368 9.5293001884954 0 0 0
216 1 0.15800500954307733 12.51257748147587 9.515244506853596 0 0 0
121 1 4.91415986152755 10.949323524283807 7.947254327451356 0 0 0
218 1 3.283199204444048 12.512008179123608 9.506804415496616 0 0 0
220 1 6.503155155800095 12.507478002121521 9.50028466575936 0 0 0
24 1 0.13673519276699211 15.69136834657402 9.537621132870104 0 -1 -1
97 1 1.7231914746391113 14.132501402986803 7.9536365045456945 0 0 0
80 1 4.889775384553019 14.101279988088885 7.9464941084888085 0 -1 0
76 1 3.311440132017138 15.69081892802678 9.526767616670055 0 -1 0
107 1 6.48274069700982 15.700003465033376 9.530308464393645 0 -1 0
77 1 1.7210746906707612 1.4561612759379867 11.108968685334807 0 0 0
79 1 4.8968895610079874 1.458686025842344 11.113015315759467 0 0 0
187 1 1.7263373338918426 4.624000981201578 11.11977941737448 0 0 0
87 1 0.13253682947042836 3.0439809664819353 12.696437699011456 0 0 0
102 1 3.309035940402289 3.0431368363259996 12.700875370257203 0 0 0
140 1 4.8982324697278905 4.623144298439214 11.11882269117038 0 0 0
5 1 6.481497099844824 3.0468703026919073 12.704288254591921 0 0 -1
125 1 0.14113866106337933 6.206691320082987 12.700397617777236 1 0 0
201 1 1.725919662846546 7.796037874937385 11.108898619545803 0 0 0
123 1 4.8880820736568635 7.788724234873358 11.109384117990666 0 0 0
113 1 3.3102905434145984 6.205198128868038 12.700796386405296 0 0 0
129 1 6.487976900744323 6.2014986206468 12.694570878446529 0 0 0
231 1 0.13819546896754453 9.367902490938473 12.695351195166674 0 0 0
233 1 3.306090518404375 9.36323975377827 12.695552909086286 0 0 0
25 1 6.5065167053033415 9.331179871352338 12.675528364570743 0 0 -1
190 1 1.7154242991236066 10.953343398342925 11.137811340735585 1 0 0
208 1 0.1301696868136074 12.536724184788394 12.699082065198489 0 0 0
200 1 4.822105900632528 10.95947695526373 11.1123651391939 0 0 0
143 1 3.262832345968002 12.558613141614305 12.719269289828746 0 0 -1
245 1 7.0710883591975024 11.927256281166017 12.099789823198488 0 0 0
217 1 1.7184820216306347 14.104582044040333 11.102971611869881 0 0 0
223 1 0.1338979165675616 15.697932454142048 12.699293505250836 1 -1 0
105 1 4.910022175459075 14.080459058876437 11.056072963374346 0 -1 0
81 1 3.3168214634462743 15.687977668293343 12.63925571383224 0 0 0
244 1 6.461105086624579 15.751307390577471 12.72235406351216 0 0 0
111 1 1.7131512396766502 1.4659395302347482 14.244534248888188 0 0 0
31 1 4.8727652689651535 1.4893466699004503 14.309544201960632 0 1 0
110 1 1.720620531430758 4.626760897938958 14.287138937160647 1 0 0
114 1 4.8922151767508995 4.6253168195911805 14.289621592403984 0 0 0
122 1 1.7240270101397586 7.786850832357962 14.283171641319138 0 0 0
235 1 4.899871675315842 7.778402575078431 14.28057841766401 0 0 0
49 1 1.7193471793762267 10.946821128115214 14.285571977968205 0 0 -1
234 1 4.919453224013819 10.902698420121409 14.258903713044239 0 0 0
242 1 1.690340062821963 14.140544974598319 14.308684014591554 0 0 0
27 1 4.3038587527056436 14.708638762031102 14.878274929378922 0 0 0
228 1 5.69398108432332 13.327790516131545 13.48506209251497 0 0 0
146 1 8.081058209669619 1.4577841895523678 1.628578721291026 0 1 0
8 1 11.242046319287764 1.4564868002909126 1.626990707292401 0 0 0
106 1 14.397164763010208 1.4758402758886013 1.6466249569728768 0 1 0
17 1 8.06947940938932 4.622427807092488 1.624010714728766 0 0 0
184 1 9.66375535582696 12.530058994360092 6.366513753038689 0 0 0
243 1 11.24058480125938 4.62306017526543 1.6222460643840397 0 0 0
10 1 12.826209392940084 3.0419144702741265 0.04256990242366781 0 0 0
225 1 14.409824004403392 4.6316116282120525 1.622911852332334 0 1 1
163 1 12.844029108336152 12.534538787210018 6.368262091695651 0 0 0
69 1 9.65787186353313 15.695316028478343 6.371594692454131 0 -1 0
229 1 11.24736818366985 7.786027402074169 1.621228412871458 0 0 1
194 1 12.851547049521628 9.371236434770726 6.362038960322744 0 0 0
141 1 14.419223612565437 7.792860670048278 1.6239048671851124 -1 0 0
33 1 12.834127450624052 15.693450709198585 6.3748885976152 0 -1 0
128 1 8.070570000696767 7.7853747985775605 1.624400871195293 0 0 0
139 1 12.835196419516413 9.369919889355629 0.03965912917861171 0 0 0
147 1 9.664672020767686 12.532303796677075 0.0456659507301221 0 0 0
136 1 8.07028908109116 10.95171772196352 1.6345110018265308 0 0 0
138 1 11.248040841245608 10.951304030905964 1.6242052988951545 0 0 0
148 1 12.834435582640568 12.533618168688548 0.04132139781457709 0 0 0
164 1 14.420122840067286 10.952749109086664 1.6259553263705961 0 0 0
172 1 8.076126984897497 14.114703261226357 1.630518482112763 0 0 0
109 1 9.669374504366473 15.696412087950755 0.04014604457117252 0 -1 1
224 1 11.247340514649204 14.115330903221354 1.6259039777434783 0 -1 0
250 1 12.830751641857407 15.702018160922444 0.04596779806598814 0 0 1
101 1 14.414589331520467 14.117710199696216 1.6310200876917391 -1 -1 1
54 1 8.069473819301253 1.4530359428585613 4.791746294278031 0 0 0
44 1 11.240655531644464 1.4517162990176584 4.792136022872313 0 0 0
56 1 14.410273248605451 1.4508885619897611 4.8006170955143945 -1 0 0
42 1 9.654782752704847 3.03854697928138 3.2082389859935176 0 0 0
64 1 8.069140956648525 4.620199695424753 4.789270741208912 0 0 0
36 1 12.811045210936914 3.0471968994912353 3.216960042153653 -1 0 0
59 1 11.234961647160873 4.621124498901453 4.790081008887959 0 0 0
65 1 14.385103703606356 4.658282918158935 4.826463622426329 0 0 0
88 1 9.65647008264809 6.202598390612303 3.2024232358826494 0 0 0
161 1 8.07142311331661 7.782982681503555 4.784493966338938 0 0 0
35 1 12.834437896806904 6.2065135877285185 3.1980506470687406 0 0 0
181 1 11.257301962235363 7.777905333301915 4.770115502843457 0 0 0
155 1 14.430481189799814 7.806315821772286 4.79790516226187 0 0 0
137 1 9.661374070796077 9.36661978909736 3.2041243552470116 0 0 0
154 1 12.837486964783722 9.372350861772526 3.2041969156201056 0 0 0
112 1 9.659982865517845 12.531975095930827 3.2089239488340513 0 0 0
66 1 8.074498825237937 10.945953614812337 4.789112156866365 0 0 0
162 1 11.25279316140522 10.949292339790125 4.784851175684889 0 0 0
62 1 12.834575726934345 12.532639804692522 3.208842288208885 0 0 0
165 1 14.43303258292547 10.953113330032632 4.7998739601367735 0 0 0
171 1 8.070176334323563 14.113507301140249 4.79152860344454 0 0 0
32 1 9.658113453414058 15.696688733186908 3.2091239687439996 0 -1 0
103 1 12.828113828248096 15.697103782031052 3.2137137320169176 -1 -2 0
30 1 11.24686669451188 14.113533407991884 4.7896884215354945 0 0 0
197 1 14.423991996207254 14.105171651648947 4.803181810614727 0 -1 0
90 1 9.656393073572175 3.0323338235803377 6.370962487032356 0 0 0
60 1 12.833071403951282 3.026343704980445 6.373215093575799 0 0 0
175 1 9.656595799431432 6.195490684118369 6.363841081815101 0 0 0
92 1 12.874147245795504 6.168134555349917 6.334877729239983 0 0 0
189 1 11.38040310389689 7.6591492090213285 7.824016618489553 0 0 0
118 1 9.680337547217473 9.346589580508097 6.351690987325855 0 0 0
18 1 9.658196310572723 3.0393482818420354 0.04094841417836603 0 0 0
29 1 9.66264412654376 9.36463013644144 0.05027429458580084 0 0 1
21 1 12.832154956710035 6.20554795168772 0.03942334997919862 -1 0 0
191 1 9.658026097168978 6.202301189172145 0.039803970688170764 0 0 0
68 1 8.070653859365775 1.453368315944527 7.953400536423457 0 0 0
91 1 11.247140830274189 1.4501436785945128 7.954123918981739 0 0 0
239 1 14.419537426020456 1.4501434268966256 7.960299641249342 0 0 0
53 1 9.661447217711887 3.0338948110637203 9.534387820090142 0 -1 0
149 1 8.072435943644578 4.61509774885859 7.950835655740635 0 0 -1
94 1 12.835643407076926 3.032173926119784 9.538952906690493 0 0 0
28 1 11.245727542535978 4.620023701697017 14.282755918216374 0 0 -1
206 1 14.422874356804229 4.622090956193244 7.965400493724846 0 0 0
104 1 9.680422780755325 6.184192545706051 9.514728058303074 0 0 0
179 1 8.056235434846387 7.771040864342013 7.938111035285403 0 0 0
183 1 12.847215748189246 6.195671015540967 9.537482535194272 0 0 1
43 1 14.456601834917983 7.788486379353744 7.944588441541224 0 0 0
119 1 9.917797951973332 9.105913909588939 9.27709749886132 0 0 0
73 1 12.865412596147417 9.346669329148428 9.515034140869613 0 0 0
221 1 9.672516013584195 12.574699131578127 9.5231843565102 0 0 0
193 1 8.102846564847018 10.920946563507703 7.933607759602544 0 0 0
213 1 12.845726421929232 12.529986370057523 9.532288030342167 0 0 0
241 1 14.416486561084398 14.120262172648186 14.28836215525176 0 0 0
195 1 14.410880217718164 10.950372178925019 7.950322809742534 0 0 0
198 1 8.071752979090322 14.114409770841702 7.948914140342637 0 0 0
39 1 9.662009853105843 15.70547894941274 9.53357536773002 0 0 0
84 1 12.836592877901754 15.693639616516649 9.536827307166384 0 -1 0
199 1 11.255032210229265 14.119001385250737 7.948067145165587 0 0 0
16 1 14.431895670615177 14.103619227595212 7.955691682278094 0 0 0
7 1 8.071155922477224 1.46447351937613 11.119232324644331 0 0 -1
120 1 11.24818923665347 1.4533252797313119 11.119304726901206 0 0 0
58 1 14.419441481317717 1.451966223913233 11.120389037400912 0 1 0
74 1 8.076171552623038 4.619108053293329 11.113931066164415 0 0 0
20 1 9.660228828751858 3.038603085893346 12.70088184765088 0 0 0
93 1 11.250973220170993 4.614744568105473 11.117223271315108 0 0 0
96 1 14.422597929272063 4.620724098214165 11.12044100917063 -1 0 0
124 1 9.663610874861819 6.198167103781804 12.698230369138534 0 0 0
151 1 8.099386357728672 7.765396466797763 11.089094088462737 1 0 0
100 1 12.840395340905298 6.200705388700344 12.701324824434808 0 0 0
204 1 11.267415464190703 7.7683669506205195 11.12701331914409 0 0 0
89 1 14.43669593203174 7.790155669633161 11.109866886276635 0 0 0
237 1 9.671954582094331 9.354916496356266 12.741128023752413 0 0 0
211 1 8.492700159155575 10.532304061748452 10.698385309532812 0 0 0
230 1 12.842235204711466 9.36503175146364 12.696508844470461 0 0 0
247 1 9.691548094352248 12.504392049363714 12.673115913084692 0 0 0
205 1 11.27232835562582 10.919870304868292 11.08702572457462 0 0 0
6 1 12.839878304667288 12.526016035725071 12.693719270589698 0 0 0
215 1 14.435127818808171 10.946268402344755 11.103620639660972 0 0 0
50 1 9.66485988484326 15.701623559452505 12.700484435957609 0 0 0
82 1 8.061745828004641 14.169626333028207 11.126778697515972 0 -1 0
249 1 11.253319316833036 14.114398568718194 11.116581088875856 0 0 0
130 1 12.835807698821183 15.695711793019075 12.700709878952704 0 0 0
108 1 14.42739842907699 14.106388841574086 11.111240896155612 0 0 0
219 1 8.077216719704664 1.4605465258806538 14.284332018418858 0 0 0
85 1 11.247289308072721 1.4552490497121657 14.28448228609655 0 0 0
23 1 14.414577090769342 1.4587602078715263 14.286883163766714 0 0 0
153 1 8.071479277184853 4.62192031485767 14.283082653983188 0 0 0
117 1 12.832769126393423 3.036598399899799 12.702106801275667 0 0 0
95 1 14.415863901840071 4.625913161747256 14.282231510512139 0 0 0
202 1 8.073744017334347 7.780012360995319 14.28477516194753 0 0 0
173 1 11.253436332023483 7.779627545108739 14.288740799983913 0 0 0
226 1 14.422007655836621 7.7877711388848025 14.281984150470098 -1 0 0
236 1 8.065395113752665 10.956664501781544 14.341066661385314 0 0 0
238 1 11.252517393194504 10.948339390382277 14.283591025598527 0 0 0
240 1 14.420852352626833 10.95105926596479 14.281447725294061 0 0 0
246 1 8.122273761032863 14.089567167612609 14.25850405043128 0 0 0
115 1 11.255177656779857 14.110981969883046 14.280034272386809 0 0 0
214 1 11.264321478488805 10.958399288644936 7.936941904336893 0 0 0
99 1 11.256156013164086 4.600686410371644 7.94536872549749 0 0 0

Velocities

11 0 0 0
4 0 0 0
3 0 0 0
180 0 0 0
2 0 0 0
14 0 0 0
13 0 0 0
15 0 0 0
131 0 0 0
12 0 0 0
132 0 0 0
127 0 0 0
135 0 0 0
207 0 0 0
133 0 0 0
158 0 0 0
150 0 0 0
232 0 0 0
142 0 0 0
134 0 0 0
145 0 0 0
46 0 0 0
1 0 0 0
83 0 0 0
144 0 0 0
52 0 0 0
185 0 0 0
37 0 0 0
38 0 0 0
116 0 0 0
152 0 0 0
40 0 0 0
126 0 0 0
157 0 0 0
47 0 0 0
212 0 0 0
48 0 0 0
156 0 0 0
22 0 0 0
160 0 0 0
166 0 0 0
176 0 0 0
170 0 0 0
86 0 0 0
45 0 0 0
26 0 0 0
167 0 0 0
169 0 0 0
192 0 0 0
159 0 0 0
71 0 0 0
57 0 0 0
41 0 0 0
75 0 0 0
72 0 0 0
63 0 0 0
61 0 0 0
177 0 0 0
19 0 0 0
174 0 0 0
182 0 0 0
9 0 0 0
78 0 0 0
196 0 0 0
34 0 0 0
51 0 0 0
227 0 0 0
70 0 0 0
188 0 0 0
67 0 0 0
168 0 0 0
55 0 0 0
186 0 0 0
222 0 0 0
178 0 0 0
210 0 0 0
98 0 0 0
203 0 0 0
248 0 0 0
209 0 0 0
216 0 0 0
121 0 0 0
218 0 0 0
220 0 0 0
24 0 0 0
97 0 0 0
80 0 0 0
76 0 0 0
107 0 0 0
77 0 0 0
79 0 0 0
187 0 0 0
87 0 0 0
102 0 0 0
140 0 0 0
5 0 0 0
125 0 0 0
201 0 0 0
123 0 0 0
113 0 0 0
129 0 0 0
231 0 0 0
233 0 0 0
25 0 0 0
190 0 0 0
208 0 0 0
200 0 0 0
143 0 0 0
245 0 0 0
217 0 0 0
223 0 0 0
105 0 0 0
81 0 0 0
244 0 0 0
111 0 0 0
31 0 0 0
110 0 0 0
114 0 0 0
122 0 0 0
235 0 0 0
49 0 0 0
234 0 0 0
242 0 0 0
27 0 0 0
228 0 0 0
146 0 0 0
8 0 0 0
106 0 0 0
17 0 0 0
184 0 0 0
243 0 0 0
10 0 0 0
225 0 0 0
163 0 0 0
69 0 0 0
229 0 0 0
194 0 0 0
141 0 0 0
33 0 0 0
128 0 0 0
139 0 0 0
147 0 0 0
136 0 0 0
138 0 0 0
148 0 0 0
164 0 0 0
172 0 0 0
109 0 0 0
224 0 0 0
250 0 0 0
101 0 0 0
54 0 0 0
44 0 0 0
56 0 0 0
42 0 0 0
64 0 0 0
36 0 0 0
59 0 0 0
65 0 0 0
88 0 0 0
161 0 0 0
35 0 0 0
181 0 0 0
155 0 0 0
137 0 0 0
154 0 0 0
112 0 0 0
66 0 0 0
162 0 0 0
62 0 0 0
165 0 0 0
171 0 0 0
32 0 0 0
103 0 0 0
30 0 0 0
197 0 0 0
90 0 0 0
60 0 0 0
175 0 0 0
92 0 0 0
189 0 0 0
118 0 0 0
18 0 0 0
29 0 0 0
21 0 0 0
191 0 0 0
68 0 0 0
91 0 0 0
239 0 0 0
53 0 0 0
149 0 0 0
94 0 0 0
28 0 0 0
206 0 0 0
104 0 0 0
179 0 0 0
183 0 0 0
43 0 0 0
119 0 0 0
73 0 0 0
221 0 0 0
193 0 0 0
213 0 0 0
241 0 0 0
195 0 0 0
198 0 0 0
39 0 0 0
84 0 0 0
199 0 0 0
16 0 0 0
7 0 0 0
120 0 0 0
58 0 0 0
74 0 0 0
20 0 0 0
93 0 0 0
96 0 0 0
124 0 0 0
151 0 0 0
100 0 0 0
204 0 0 0
89 0 0 0
237 0 0 0
211 0 0 0
230 0 0 0
247 0 0 0
205 0 0 0
6 0 0 0
215 0 0 0
50 0 0 0
82 0 0 0
249 0 0 0
130 0 0 0
108 0 0 0
219 0 0 0
85 0 0 0
23 0 0 0
153 0 0 0
117 0 0 0
95 0 0 0
202 0 0 0
173 0 0 0
226 0 0 0
236 0 0 0
238 0 0 0
240 0 0 0
246 0 0 0
115 0 0 0
214 0 0 0
99 0 0 0
