LAMMPS data file via write_data, version 22 Jul 2025, timestep = 19947, units = metal

250 atoms
1 atom types

-0.04173739986934604 15.867715399869347 xlo xhi
0 15.825978000000001 ylo yhi
0 15.825978000000001 zlo zhi

Masses

1 183.841

Atoms # atomic

11 1 1.7058688916220661 1.5459279019282801 1.528646980431111 0 0 0
4 1 4.895798378120601 1.5454741908097978 1.5401038270773504 0 0 0
12 1 1.7047842267292956 4.7076714727427715 1.5337861979975325 0 0 0
14 1 4.897876214613 4.712724714647337 1.5428575749397127 0 0 0
126 1 1.6842464032940454 7.89736055507245 1.6131414460601847 0 0 0
132 1 4.886829987381792 7.880329858904335 1.5545862518063773 0 0 0
34 1 6.48150149307642 15.796576979871801 6.297170385430448 0 -1 0
46 1 1.78109179142686 10.974206124612593 1.4337567376944387 -1 0 0
49 1 0.11144204979993057 12.645715292181992 0.013762865037252143 0 0 0
134 1 4.886993513564373 11.031426749329778 1.5408115026711475 0 0 0
142 1 1.72314334617513 14.198357609305651 1.5496509063879367 0 0 0
144 1 4.886930386792246 14.201243974417162 1.5425283016478513 0 0 0
52 1 1.693434766618287 1.528073328293943 4.646671549688004 0 0 0
58 1 4.900097294167495 1.5484139017940863 4.698506679038407 0 0 0
38 1 0.12670030582646916 3.1271470574878317 3.112273810510758 0 0 0
37 1 1.714100729009973 4.715210517495799 4.700906182781374 0 0 0
39 1 4.900202020858073 4.717170353078862 4.699926379667616 0 0 0
185 1 3.305295365606284 3.131580560747213 3.1102094678566754 0 1 0
40 1 6.488442059510542 3.1309780179635203 3.1206008346756193 0 0 0
180 1 0.12510477559020317 6.288364601471033 3.121502026075071 0 0 0
151 1 1.7118046461062792 7.860955967429741 4.711943706274427 1 0 0
47 1 3.3036628602621385 6.300119180718605 3.1307066804913135 0 0 0
152 1 4.880411081271568 7.889006616833452 4.702353256326053 0 0 0
48 1 6.485288094928393 6.2941355851323335 3.1243646219293923 0 0 0
156 1 0.12932538436968372 9.506014747734838 3.1858432209860377 0 0 0
22 1 3.2777309430300647 9.490240546440825 3.1442746955497056 0 0 0
160 1 6.470711837500026 9.453062724156828 3.122025593742869 0 0 0
166 1 0.5293133872188267 12.500785660708258 3.2466808849891997 0 0 0
170 1 4.910488298199734 11.037806520890852 4.706374154243779 0 0 0
232 1 3.304672172319251 12.606393409831174 3.1388813812624994 0 0 0
45 1 6.461280632029543 12.622937696386172 3.120840781291531 0 0 0
26 1 0.11083376416951053 15.737701395414213 3.101310444197105 0 -1 0
167 1 1.7803114491518877 14.316765263691945 4.769823577076797 0 0 0
169 1 3.313142628903244 15.789095954446358 3.114578322565862 0 0 0
192 1 4.889354700236255 14.20324103776389 4.710258470225356 0 0 0
159 1 6.479981501066928 15.791487612185346 3.1222571207518555 0 -1 0
51 1 0.9143448819052706 0.7239689844161564 7.044388103569631 0 0 0
210 1 4.8798863552758664 11.041917232741678 7.855780329383078 0 0 0
56 1 0.1539663629223369 3.17365956110861 6.313418970676138 0 0 0
127 1 3.2851084316103867 6.303569524634822 0.015330601894739705 0 0 0
72 1 4.911534351253084 4.690573005222378 7.872626592506447 0 0 0
57 1 3.3019302391629544 3.1276117412950115 6.225286411670822 0 0 0
41 1 6.496779956227928 3.12913830926252 6.274263329218587 0 0 0
61 1 0.12502171999021394 6.307569597533907 6.287000355946863 0 0 0
186 1 1.7166137676113313 7.894194892734949 7.852728968464564 0 0 0
62 1 3.3109539341962613 6.297723776570326 6.286133004609341 0 0 0
178 1 4.886857025290731 7.898417842569005 7.846806333622331 0 0 0
63 1 6.488352417640242 6.295805929371302 6.277188522298173 0 0 0
176 1 0.13385975851206836 9.477463987434044 6.266485155886588 0 0 0
177 1 3.2810376713651612 9.482039037750022 6.262945049211418 0 0 0
161 1 6.471152486557356 9.455116566249838 6.289281903940298 0 0 0
174 1 0.12867912168490853 12.554555313336284 6.236828747891412 1 0 0
191 1 1.711135402055853 11.031563822270055 7.8842602927275856 0 0 0
182 1 3.27751071958493 12.600109863757806 6.252509990657628 0 0 0
196 1 3.377304410847223 15.821448432279379 6.3272628063581395 0 0 0
9 1 6.470998031901364 12.622231966305407 6.29058368046554 0 -1 0
97 1 1.6859733453190555 14.13780401666165 7.83688116218569 0 0 0
80 1 4.8891441928438235 14.187788727858269 7.8640400539086475 0 -1 0
227 1 4.923279167033441 1.575423686692102 7.902865971316451 0 0 0
71 1 1.7304252942047151 4.747698961842137 7.902601008872636 0 0 0
35 1 2.3226026382439815 2.1260192687594364 8.458097849348057 0 0 0
86 1 0.05968698639134718 3.099352960025951 9.435769362212104 0 0 0
66 1 3.5746892893398834 3.638932319694144 9.956637656881549 0 0 0
90 1 6.616894217660357 3.0510356351637706 9.377459077967476 0 0 0
96 1 0.09781349299149746 6.321085848160741 9.437126541978587 0 0 0
187 1 3.346323828115682 6.321736073569313 9.431941452017993 0 0 0
98 1 6.540974558210329 6.388376534422948 9.359143295677136 0 0 0
206 1 0.12212827191403221 9.456661258760018 9.44195320970293 0 0 0
208 1 3.309106325687064 9.459122199916136 9.4488079280979 0 0 0
3 1 3.302450454427613 15.786225953884276 15.784925509539798 0 -1 -1
216 1 0.12492908736942276 12.612935916807647 9.456167724339645 0 0 0
218 1 3.3021372008987675 12.6116627959335 9.44430182475801 0 0 0
220 1 6.48396771930827 12.619226769681338 9.451597065557266 0 0 0
24 1 0.15209762055117454 15.812028472044686 9.497309572957489 0 -1 -1
76 1 3.297636682198704 15.717140614367196 9.450048174208327 0 -1 0
68 1 6.49358080792969 15.771063148837312 9.451315428431569 0 -1 0
77 1 1.7196970491700974 1.5808289427788744 11.083747481911285 0 0 0
67 1 4.9078277865937965 1.547436017763348 11.008604124651168 0 0 0
87 1 1.4422721311565294 4.724689793545688 11.070688365860503 0 0 0
111 1 0.07143862269721513 3.123396796428111 12.681824362406546 0 0 0
104 1 3.349494215143338 3.1039630544702193 12.639438076411718 0 0 0
89 1 5.577991816334562 4.70811595523855 11.031147039663997 0 0 0
115 1 6.548564269317376 3.0355322920518106 12.706824729716773 0 0 0
201 1 1.720839947674695 7.846787872702618 11.004804474119876 0 0 0
146 1 6.47849545195616 15.789217376388773 15.781699181153225 0 0 -1
123 1 4.913328718536862 7.876018388671404 11.052887276432644 0 0 0
157 1 3.602043704834387 5.796277713368489 12.12624719276408 0 0 0
135 1 6.618539027782294 6.365642421629498 12.69097044018502 0 0 -1
231 1 0.14637441791608619 9.423429405863068 12.584547979894298 0 0 0
233 1 3.3003978811172474 9.510856184395092 12.619443484892884 0 0 0
203 1 6.495184909718239 9.469035829821138 12.617882809269931 0 0 0
179 1 6.488483394429133 9.468124698494304 9.448894762098078 0 0 0
243 1 1.7118181003401194 11.038504894629035 11.03597728146974 0 0 0
241 1 0.1254786572641239 12.623411478116829 12.622521231657556 0 0 0
207 1 3.302297178462153 12.627593385534471 12.619158509383796 0 0 0
209 1 4.898014921047984 11.04333439754128 11.029879298380507 0 0 0
245 1 6.486015636617992 12.62225544097271 12.616530279955418 0 0 0
168 1 0.1267883774295458 15.78945572540721 12.63035670539183 0 -1 0
217 1 1.7118817812141471 14.200387136781655 11.040840785535313 0 0 0
79 1 3.309773029292341 15.785175768580636 12.616396012126387 0 -1 0
105 1 4.899267149807039 14.198183456560733 11.03681857094867 0 -1 0
244 1 6.490673944149303 15.779703276631874 12.616712721562058 0 0 0
102 1 1.7123837761512828 1.5473226716724442 14.20915722200055 0 0 0
5 1 4.897322627525823 1.5306656796147404 14.213785675945882 0 0 -1
113 1 1.7698549018379839 4.672051373811291 14.177105521337753 0 0 0
110 1 0.11176639488362528 3.1383968117670924 15.765549223656828 1 0 0
114 1 4.923431019863637 4.7282899388680555 14.202402405243024 0 0 0
13 1 3.3112262901766742 3.1281890233907603 15.789614386426544 0 0 -1
15 1 6.494273526773134 3.1268403373582574 15.794378775943283 0 0 -1
122 1 2.2862110214775937 7.2789620320859125 13.59881508780902 0 0 0
21 1 0.12090360093478299 6.199240575063221 15.719372426074342 0 0 -1
235 1 4.9167478974045595 7.839955222551335 14.1698669463725 0 0 0
23 1 6.493004932261598 6.295310031925109 15.800082411327255 0 0 -1
226 1 0.8965674260449894 8.664526805645199 15.042515107253815 0 0 0
133 1 3.3641717367902677 9.410258781703767 15.746551701725306 0 0 -1
158 1 6.4789879971193445 9.446016648916885 15.774484110627386 0 0 -1
143 1 1.6837588538166193 11.075091554580576 14.227634382775472 0 0 -1
183 1 3.3112309832876856 12.62521961961768 15.783551509131527 0 0 0
234 1 4.89547487800755 11.042099608949412 14.198917011158677 0 0 0
145 1 6.477648391011427 12.621172452708846 15.780022552549614 0 0 -1
242 1 1.7105430371067525 14.207527461222925 14.209491343407805 0 0 0
1 1 0.12583403409046334 15.793256915562633 15.785999522716457 0 -1 -1
27 1 4.894197770003352 14.20394454714406 14.200220441347767 0 0 0
121 1 -0.016466041987197144 6.284031698035594 12.719645126502767 0 0 0
6 1 8.07910575747307 1.5482730696802078 1.5438193677530831 0 0 0
8 1 11.271433739468295 1.5582165228680667 1.5368558432233248 0 0 0
10 1 14.440365050816073 1.552656663532977 1.5401617965061358 0 0 0
16 1 8.084143910142439 4.709721355875091 1.542057406097142 0 0 0
18 1 11.274714626114505 4.706421344646987 1.5306825026400137 0 0 0
20 1 14.444108857115134 4.697406215997558 1.5568576493930701 0 0 0
128 1 8.07657989661866 7.87181614105519 1.5470515313539595 0 0 0
129 1 11.263915673412162 7.847985116310612 1.5311431287241615 0 0 0
130 1 14.461320532570806 7.776627544515837 1.51857924307573 0 0 0
131 1 15.358676922939754 10.058959388606729 0.5887015276681029 -1 0 0
136 1 8.03823516948244 11.025290903688756 1.5275917540025257 0 0 0
137 1 11.14092372715487 10.960930931780956 1.4647103024432102 0 0 0
140 1 14.212579599589926 11.615421865242237 2.10940651711811 0 0 0
112 1 8.048712456615837 14.219098353072203 1.5262609939500065 0 0 0
148 1 11.20632977207554 14.300695684258832 1.4469670374064112 0 0 0
150 1 14.411186765358254 14.235325660181292 1.51468269010037 0 0 0
54 1 8.079088808339023 1.5480023360416861 4.697703402309765 0 0 0
44 1 11.257072223551114 1.5586465270032814 4.704649707374163 0 0 0
103 1 14.458341475190402 1.6084310804816169 4.713273391712089 -1 -1 0
42 1 9.672274992198348 3.1304704261103264 3.120321607528629 0 0 0
64 1 8.082345821993949 4.712032074642078 4.7021923976313715 0 0 0
36 1 12.85118260714791 3.127623024742755 3.117032436426449 -1 0 0
43 1 11.264999415117902 4.71133240311694 4.700992525043577 0 0 0
65 1 14.446301043790841 4.718641054346586 4.706818992361906 0 0 0
88 1 9.670652397391896 6.288834013703064 3.1207695749130546 0 0 0
153 1 8.07264504513452 7.8725867627532935 4.700263326343014 0 0 0
50 1 12.84998021036905 6.2874106037989845 3.1173171708048564 0 0 0
154 1 11.262338002285338 7.869774457283302 4.697074010040931 0 0 0
155 1 14.442501299103208 7.880110399551505 4.69318837404569 0 0 0
55 1 9.656381395151344 9.453914065787796 3.1256928797141987 0 0 0
164 1 12.85750072080328 9.465677536103554 3.0726329567446244 0 0 0
19 1 8.04780890841369 11.025318600785642 4.718137366754929 0 0 0
172 1 9.516366519623066 12.622190056016853 3.122463289567785 0 0 0
138 1 12.149690209509833 12.62253061894981 3.1252392925337475 0 0 0
162 1 11.195596969239997 10.942483962855654 4.79781882208834 0 0 0
165 1 14.354211243136978 11.000123217883344 4.742110301922751 0 0 0
32 1 9.659324403975281 15.788556778542382 3.11566147085062 0 -1 0
171 1 8.039639475631141 14.217693862243904 4.718332970029781 0 0 0
224 1 12.850610997309523 15.773534546358288 3.1603122261005874 0 -1 0
30 1 11.143594939302886 14.284883478846996 4.785241164598864 0 0 0
197 1 14.212934705604049 13.637422316781793 4.134818766204998 0 -1 0
31 1 8.11264549079668 1.5229454008063497 7.84923753908547 0 0 0
53 1 11.268386574649593 1.5366242656596454 7.866049257371382 0 -1 0
239 1 14.398898339318926 1.5116247264598779 7.844907858495692 0 0 0
92 1 8.096337217399382 4.719114168902973 7.870224358823794 0 0 0
59 1 9.674198498149158 3.135296294017057 6.2860042496475215 0 0 0
60 1 12.852799019646307 3.1316707401135866 6.287919020139184 0 0 0
74 1 11.272337543930757 4.711620549402824 7.868207389081576 0 0 0
75 1 14.440767139063837 4.714567108408494 7.867345263413217 0 0 0
181 1 9.675687280877128 6.290957085057967 6.28177828979612 0 0 0
73 1 12.855150775681736 6.294307855939344 6.284168152885372 0 0 0
189 1 11.26859788325947 7.876874594455277 7.8685769891376 0 0 0
190 1 14.446653854258525 7.887774469405538 7.858621744611681 0 0 0
118 1 9.643780038186167 9.433694049106778 6.3100064412556485 0 0 0
194 1 12.846377850953965 9.439173303402935 6.302915126114587 0 0 0
184 1 9.655101007609234 12.616814930866802 6.287133641579452 0 0 0
193 1 8.072021019024977 11.043539489678913 7.871829658728747 0 0 0
163 1 12.853001007335108 12.664548359390574 6.2771349716793425 0 0 0
222 1 11.260324945891904 11.043264410853837 7.875156490572734 0 0 0
195 1 14.440748337991806 11.043713266085685 7.8641989325019095 0 0 0
69 1 9.637971394296672 15.80983920591647 6.310601181594191 0 -1 0
198 1 8.07516612931915 14.197390302496187 7.872908431147508 0 0 0
33 1 12.819459184506568 15.760580679626765 6.265460078197905 0 -1 0
199 1 11.253553990848104 14.20458688668484 7.888028732395446 0 0 0
78 1 15.357233206010413 15.157626816653325 5.694042393959157 0 -1 0
175 1 8.098748153511599 7.896601089368167 7.847923758028532 0 0 0
81 1 9.711275886224758 3.1167325035370803 9.444863532273084 0 0 0
94 1 12.851628140095375 3.121273207730186 9.455926141699692 0 0 0
99 1 9.70086450946944 6.303912429615127 9.44258515348884 0 0 0
100 1 12.856065187915835 6.298298304184627 9.453967653548734 0 0 0
119 1 9.675596546472617 9.46060470380426 9.455844077411415 0 0 0
214 1 12.854995504708416 9.456901302868372 9.45457567400748 0 0 0
223 1 9.6668231620452 12.621348369062298 9.455898581003938 0 0 0
213 1 12.8465587945998 12.616156935419609 9.460907873639524 0 0 0
82 1 9.674177428459323 15.78687541133565 9.463781784331186 0 -1 0
84 1 12.852063600917381 15.787485912072786 9.465040884154561 0 -1 0
70 1 14.450200259901276 14.198149798133933 7.955017160883411 0 -1 0
219 1 8.098125541180089 1.5424729842551208 11.04347901691803 0 0 0
83 1 11.279629598888054 1.5473896521582502 11.048173629713757 0 0 0
188 1 14.441026491454346 1.5510291546814012 11.054465184321604 0 0 0
120 1 9.707276866434016 3.1133326076858063 12.631871626431874 0 0 0
91 1 8.221547794212274 4.708990600345908 11.038569897085788 0 0 0
85 1 12.878959556189974 3.1437290288140907 12.64659737911908 0 0 0
93 1 11.296793560869292 4.7093310475648975 11.047739274484082 0 0 0
95 1 14.42527326208189 4.708358919040666 11.018403246673232 0 0 0
124 1 9.713609590168748 6.3035583030863975 12.630123471585248 0 0 0
25 1 8.09769273948674 7.8759601962936205 11.027176361437244 0 0 -1
125 1 12.87047687931205 6.279420321295654 12.645291843867605 0 0 0
204 1 11.277002375848081 7.871847699957775 11.041860234960367 0 0 0
205 1 14.44068236879461 7.866435542695752 11.045643573045812 0 0 0
237 1 9.672508859837848 9.457386298574537 12.612898352461407 0 0 0
230 1 12.845261185589377 9.45711303509675 12.612200522023505 0 0 0
211 1 8.08020913680749 11.041617311498882 11.03460450272119 0 0 0
247 1 9.668088737709153 12.622785208164796 12.618113184223 0 0 0
212 1 11.260435261244973 11.040073034650751 11.035490353871008 0 0 0
240 1 12.84781340690134 12.623448650217066 12.61908634964187 0 0 0
215 1 14.444729711986469 11.03560064583902 11.030513827754998 0 0 0
107 1 9.677606033740453 15.784662365009256 12.619094049153404 0 -1 0
221 1 8.080931245947115 14.202111778000443 11.036974503494552 0 0 0
249 1 11.262661482928504 14.204128340029474 11.040962793961443 0 0 0
225 1 12.855055106112474 15.789959292248662 12.623255104535431 0 0 0
108 1 14.44533962383023 14.205028391151702 11.050313994867684 0 0 0
106 1 8.104003765000959 1.5241338578362966 14.222783851012478 0 0 0
109 1 11.281842099248074 1.5508519966088654 14.20723778652139 0 0 0
2 1 14.44059861916381 1.5155145906680787 14.213580193087264 0 0 0
116 1 8.097529723441552 4.701465403672185 14.204181655863376 0 0 0
17 1 9.68343917894268 3.128009410725142 15.789693676732993 0 0 -1
228 1 12.877186086494 3.1462571838464672 15.765336706782032 0 0 0
117 1 11.252175802669505 4.706178627403887 14.206373979995535 0 0 0
202 1 8.11158298150994 7.894334002099206 14.223231982177616 0 0 0
28 1 9.677997692634566 6.28423697445553 15.786280337921974 0 0 -1
173 1 11.275258471647984 7.873062134934484 14.211078561534434 0 0 0
229 1 12.870072859410365 6.261972976712455 15.75858025809778 0 0 0
29 1 9.638534301021311 9.433113947867314 15.76210420230343 0 0 0
139 1 12.815809117230371 9.479951252613487 15.81900602691597 0 0 -1
200 1 14.377729736067806 7.943623152618952 14.240023581332911 0 0 0
147 1 9.655476346116677 12.628409042177545 15.785818587677158 0 0 -1
236 1 8.076305814493935 11.04572956692141 14.199092512760979 0 0 0
238 1 11.253732145634462 11.038163128474038 14.190401399417931 0 0 0
149 1 12.846807262346069 12.586353638469427 15.803275840270164 0 0 -1
141 1 14.449484454544029 11.034719101513508 14.140849915600171 -1 0 -1
246 1 8.075422899643682 14.201980566843043 14.197822605602493 0 0 0
7 1 9.650376419512904 15.811541248784607 15.76177095373743 0 -1 -1
248 1 11.26195943759647 14.20305870640114 14.199038344680108 0 0 0
250 1 12.852992615993662 15.803212685556064 15.77733905571128 0 0 0
101 1 14.43845931821873 14.193179825500332 14.208026607018452 -1 -1 0

Velocities

11 0 0 0
4 0 0 0
12 0 0 0
14 0 0 0
126 0 0 0
132 0 0 0
34 0 0 0
46 0 0 0
49 0 0 0
134 0 0 0
142 0 0 0
144 0 0 0
52 0 0 0
58 0 0 0
38 0 0 0
37 0 0 0
39 0 0 0
185 0 0 0
40 0 0 0
180 0 0 0
151 0 0 0
47 0 0 0
152 0 0 0
48 0 0 0
156 0 0 0
22 0 0 0
160 0 0 0
166 0 0 0
170 0 0 0
232 0 0 0
45 0 0 0
26 0 0 0
167 0 0 0
169 0 0 0
192 0 0 0
159 0 0 0
51 0 0 0
210 0 0 0
56 0 0 0
127 0 0 0
72 0 0 0
57 0 0 0
41 0 0 0
61 0 0 0
186 0 0 0
62 0 0 0
178 0 0 0
63 0 0 0
176 0 0 0
177 0 0 0
161 0 0 0
174 0 0 0
191 0 0 0
182 0 0 0
196 0 0 0
9 0 0 0
97 0 0 0
80 0 0 0
227 0 0 0
71 0 0 0
35 0 0 0
86 0 0 0
66 0 0 0
90 0 0 0
96 0 0 0
187 0 0 0
98 0 0 0
206 0 0 0
208 0 0 0
3 0 0 0
216 0 0 0
218 0 0 0
220 0 0 0
24 0 0 0
76 0 0 0
68 0 0 0
77 0 0 0
67 0 0 0
87 0 0 0
111 0 0 0
104 0 0 0
89 0 0 0
115 0 0 0
201 0 0 0
146 0 0 0
123 0 0 0
157 0 0 0
135 0 0 0
231 0 0 0
233 0 0 0
203 0 0 0
179 0 0 0
243 0 0 0
241 0 0 0
207 0 0 0
209 0 0 0
245 0 0 0
168 0 0 0
217 0 0 0
79 0 0 0
105 0 0 0
244 0 0 0
102 0 0 0
5 0 0 0
113 0 0 0
110 0 0 0
114 0 0 0
13 0 0 0
15 0 0 0
122 0 0 0
21 0 0 0
235 0 0 0
23 0 0 0
226 0 0 0
133 0 0 0
158 0 0 0
143 0 0 0
183 0 0 0
234 0 0 0
145 0 0 0
242 0 0 0
1 0 0 0
27 0 0 0
121 0 0 0
6 0 0 0
8 0 0 0
10 0 0 0
16 0 0 0
18 0 0 0
20 0 0 0
128 0 0 0
129 0 0 0
130 0 0 0
131 0 0 0
136 0 0 0
137 0 0 0
140 0 0 0
112 0 0 0
148 0 0 0
150 0 0 0
54 0 0 0
44 0 0 0
103 0 0 0
42 0 0 0
64 0 0 0
36 0 0 0
43 0 0 0
65 0 0 0
88 0 0 0
153 0 0 0
50 0 0 0
154 0 0 0
155 0 0 0
55 0 0 0
164 0 0 0
19 0 0 0
172 0 0 0
138 0 0 0
162 0 0 0
165 0 0 0
32 0 0 0
171 0 0 0
224 0 0 0
30 0 0 0
197 0 0 0
31 0 0 0
53 0 0 0
239 0 0 0
92 0 0 0
59 0 0 0
60 0 0 0
74 0 0 0
75 0 0 0
181 0 0 0
73 0 0 0
189 0 0 0
190 0 0 0
118 0 0 0
194 0 0 0
184 0 0 0
193 0 0 0
163 0 0 0
222 0 0 0
195 0 0 0
69 0 0 0
198 0 0 0
33 0 0 0
199 0 0 0
78 0 0 0
175 0 0 0
81 0 0 0
94 0 0 0
99 0 0 0
100 0 0 0
119 0 0 0
214 0 0 0
223 0 0 0
213 0 0 0
82 0 0 0
84 0 0 0
70 0 0 0
219 0 0 0
83 0 0 0
188 0 0 0
120 0 0 0
91 0 0 0
85 0 0 0
93 0 0 0
95 0 0 0
124 0 0 0
25 0 0 0
125 0 0 0
204 0 0 0
205 0 0 0
237 0 0 0
230 0 0 0
211 0 0 0
247 0 0 0
212 0 0 0
240 0 0 0
215 0 0 0
107 0 0 0
221 0 0 0
249 0 0 0
225 0 0 0
108 0 0 0
106 0 0 0
109 0 0 0
2 0 0 0
116 0 0 0
17 0 0 0
228 0 0 0
117 0 0 0
202 0 0 0
28 0 0 0
173 0 0 0
229 0 0 0
29 0 0 0
139 0 0 0
200 0 0 0
147 0 0 0
236 0 0 0
238 0 0 0
149 0 0 0
141 0 0 0
246 0 0 0
7 0 0 0
248 0 0 0
250 0 0 0
101 0 0 0
