LAMMPS data file via write_data, version 22 Jul 2025, timestep = 8394, units = metal

250 atoms
1 atom types

-0.02092507596588653 15.846903075965908 xlo xhi
0 15.825978000000001 ylo yhi
0 15.825978000000001 zlo zhi

Masses

1 183.841

Atoms # atomic

2 1 1.6236532368669119 1.6407679113212832 1.4959075844113865 0 0 0
4 1 4.832569992693422 1.6462816063629846 1.460165418324049 0 0 0
12 1 1.6229695919349074 4.789858017006537 1.4996360551588515 0 0 0
14 1 4.808024674954816 4.792839588168549 1.4853917326141053 0 0 0
126 1 1.6254087906191532 7.939661543527987 1.4915109945871012 0 0 0
158 1 4.803668640309378 7.945466663956357 1.4902687966919883 0 0 0
132 1 1.6554285373683018 11.14225866985077 1.444779338731666 0 0 0
134 1 4.802614283793478 11.061860915580912 1.4932179377721089 0 0 0
142 1 1.5712965091651099 14.284465323013157 1.4955780054229881 0 0 0
144 1 5.204022989888292 14.687291108971026 1.089099481929275 0 0 0
27 1 1.6240150697947051 1.648103813041953 4.651174058083813 0 0 0
26 1 0.04090742246348037 0.057013943848038914 3.0722723512203447 0 0 0
28 1 3.24207968122556 0.07979036897284975 3.0473625872257935 0 0 0
58 1 4.806218438531842 1.6332473654943285 4.654027035399753 0 0 0
159 1 6.406905265775847 0.057384670567301295 3.1088916452483564 0 0 0
37 1 1.6463245888887963 4.7858905378810785 4.657465957737362 0 0 0
36 1 0.026097703369830257 3.2320019251871037 3.0931976553223692 0 0 0
38 1 3.2185246991773715 3.2120294258982782 3.065954746100265 0 0 0
39 1 4.807361958862174 4.7893213273221305 4.652116000256336 0 0 0
40 1 6.396661116328417 3.2126176225323895 3.0672693908959174 0 0 0
180 1 0.02411991738147415 6.346630058471558 3.088095699443001 0 0 0
47 1 3.2103836539222868 6.36447556131941 3.0740439106019988 0 0 0
48 1 6.393277603083618 6.3724762644425095 3.0699495945461193 0 0 0
151 1 1.5953916130656225 7.903788692265124 4.680504684091545 0 0 0
156 1 0.05155695928387886 9.535955314613421 3.006384155270481 0 0 0
152 1 4.808704477890507 7.948477589562421 4.654113640101237 0 0 0
22 1 3.1915378924343525 9.483711954591206 3.0974055945806835 0 0 0
160 1 6.398691866055368 9.532928045575424 3.0710985464122933 0 0 0
157 1 1.0067637489410561 10.497649446549334 5.261781661408721 0 0 0
46 1 2.405136564902817 11.892598758719272 3.8921783247041244 -1 0 0
168 1 3.793395692070021 13.280037311390943 2.495617871921341 0 0 0
170 1 4.8564623693129185 11.144704603683543 4.629649336165536 0 0 0
45 1 6.426538925829368 12.730926151728715 3.0441536888294025 0 0 0
167 1 1.6544228116400352 14.340688099926961 4.630885195426598 0 0 0
169 1 4.802259071741046 14.283529377169646 4.712889507560915 0 0 0
196 1 1.6320402468562418 14.29520575919612 7.824250262677978 0 0 0
35 1 1.6234178085323299 1.6375127152800744 7.811307238197494 0 0 0
67 1 4.804132564735324 1.6283532053205998 7.817304457056787 0 0 0
52 1 3.2174966734475596 0.05281820180338095 6.240106852326085 0 0 0
53 1 6.397968360171219 0.048109244066419726 6.244729679919594 0 0 0
56 1 0.019662723453398357 3.2309327855690375 6.221599306882352 0 0 0
71 1 1.618041484422203 4.786611823267265 7.813056964373745 0 0 0
57 1 3.211988339433289 3.2096931462984815 6.236463775061886 0 0 0
72 1 4.802893043855577 4.789349953792886 7.816167213407606 0 0 0
41 1 6.392160400542489 3.208962621511047 6.234616234545099 0 0 0
61 1 -0.007843064270770642 6.318143064231316 6.23979490983089 0 0 0
62 1 3.216329073664663 6.365300245054937 6.236716381195073 0 0 0
63 1 6.393370337383209 6.3713501474132395 6.235240646648529 0 0 0
186 1 1.6841983602084565 7.932458178289339 7.82510805898621 0 0 0
80 1 4.806536118456386 14.287183287155568 7.828485254467941 0 -1 0
177 1 3.273950806517831 9.54849081103475 6.22368208433463 0 0 0
187 1 4.816760057400368 7.952061418422035 7.820148840587405 0 0 0
178 1 6.405057928599399 9.538169531121689 6.2341509768395245 0 0 0
191 1 1.6090488979907818 11.094696850781002 7.853018081089353 0 0 0
174 1 0.05796439975376183 12.762893875734171 6.22545767654161 1 0 0
182 1 3.197060334841523 12.681851979269682 6.292447424006879 0 0 0
192 1 4.81304893391007 11.119611370809128 7.824056843224529 0 0 0
183 1 6.400538293315566 12.703822350484101 6.240565228055576 0 0 0
51 1 0.04670999834479243 0.06261811940147699 6.235186341923468 0 0 0
166 1 -0.004915076758546701 12.679176810843714 3.096026124553682 0 0 0
76 1 0.045728435475659274 0.04688109347774487 9.399911589699586 0 0 0
78 1 3.2181827586847276 0.047410750683772006 9.399926467921384 0 0 0
68 1 6.396336740294961 0.04562775775691916 9.396426785901138 0 0 0
86 1 0.04393247484795213 3.2050553362540404 9.398969641765737 0 0 0
66 1 3.215890161832704 3.2093141082615984 9.397887555362097 0 0 0
90 1 6.391238500684912 3.2098673591718385 9.394741398762767 0 0 0
96 1 0.04690673443973245 6.3697341738130175 9.403071354405984 0 0 0
97 1 3.2239800619709236 6.36413622956507 9.406710760003959 0 0 0
98 1 6.390317913557162 6.371515046030527 9.400730016546945 0 0 0
206 1 0.020378866209542983 9.508925657354593 9.425335435705696 0 0 0
208 1 3.221336569685492 9.535119597348775 9.405412771415053 0 0 0
210 1 6.395493864169891 9.537645897594878 9.401519099288231 0 0 0
216 1 0.045886235714936524 12.705814964255277 9.406087118664969 0 0 0
218 1 3.2176270159562916 12.701526759548921 9.40973907094332 0 0 0
220 1 6.396252710562071 12.703670844635282 9.401302778874475 0 0 0
77 1 1.6328949541806774 1.62685996934935 10.981066660836893 0 0 0
101 1 0.04812271684318001 0.04299315683763713 12.565633484846662 0 0 0
79 1 4.807129410672552 1.630258901702885 10.976765961309498 0 0 0
103 1 3.2220478566500774 0.04841336530989203 12.56144699813295 0 0 0
219 1 6.4142832129822756 0.06338090776932197 12.54515023027517 0 0 0
87 1 1.6309132646873215 4.789427953649632 10.983773005269418 0 0 0
111 1 0.04954960544094971 3.206288268116384 12.569131817463788 0 0 0
89 1 4.803830321897384 4.791388481563953 10.982395805911828 0 0 0
104 1 3.2166338849187692 3.213499320597647 12.562073724132542 0 0 0
115 1 6.390759237805218 3.216248059572968 12.558128203259274 0 0 0
121 1 0.04544808970612054 6.36952387338008 12.572938339379386 0 0 0
122 1 3.2180750378077976 6.37374256004746 12.567738256923313 0 0 0
123 1 6.390907285844988 6.378025452781222 12.565165979955628 0 0 0
231 1 0.04258825396424453 9.533188739096515 12.570403347936388 0 0 0
201 1 1.6307852603327657 7.950569174030908 10.988245291651237 0 0 0
202 1 4.805233165024183 7.956121906337094 10.98435723639078 0 0 0
233 1 3.219088631534921 9.538167082634823 12.56645689968105 0 0 0
203 1 6.393223895286916 9.539764512753113 12.56510360332143 0 0 0
243 1 1.6291895460957497 11.11607770326128 10.988399106214024 0 0 0
241 1 0.047121078610911846 12.702580408432965 12.566051560362169 0 0 0
207 1 3.225632896572902 12.709419998471253 12.563474050207233 0 0 0
209 1 4.807766324146894 11.121611676385752 10.984246071780875 0 0 0
245 1 6.399423804456003 12.706540887879608 12.560439837950947 0 0 0
217 1 1.6341597685695362 14.287942391911933 10.984299741828973 0 0 0
105 1 4.811382444025171 14.291673193361232 10.98104087616379 0 -1 0
1 1 0.03501155246064212 0.05023394817317577 15.731490155204707 0 0 -1
102 1 1.6272891848494189 1.6329594002680756 14.14546781420248 0 0 0
3 1 3.175875673981686 0.057857188556278416 15.723613006760786 0 0 -1
5 1 4.796922004594704 1.6423881925513182 14.133855408537995 0 0 -1
146 1 6.636517876699272 0.2840095101743355 15.488351806025339 0 1 -1
113 1 1.6323263946010171 4.791826158747789 14.152539348223733 0 0 0
11 1 0.047944808619153484 3.2097530677561292 15.740274767811815 0 0 -1
13 1 3.219583570414551 3.2151117049677254 15.73026306634339 0 0 -1
114 1 4.806763865606236 4.7968759895863196 14.146071787755247 0 0 0
15 1 6.412797634307602 3.229035908227251 15.712399626010443 0 0 -1
21 1 0.0465905867114331 6.371291305725688 15.739030572973748 0 0 -1
127 1 3.2179099352272944 6.370852861041037 15.733253356858295 0 0 -1
23 1 6.395014046963586 6.376768838643206 15.730553615203021 0 0 -1
226 1 1.6320164664178942 7.9538867280131615 14.150616662179912 0 0 0
131 1 0.04637162026648471 9.536602962606777 15.7256605582901 0 0 -1
133 1 3.2177899479389485 9.531685679409575 15.72936212918546 0 0 -1
235 1 4.805434413606734 7.956100091937279 14.148596775948167 0 0 0
135 1 6.397674255438673 9.52909595083576 15.728142715579047 0 0 -1
232 1 1.636399385113264 11.123789296050603 14.143270468757857 0 0 0
49 1 0.04172480391628888 12.703634172582102 15.728189366121903 0 0 -1
234 1 4.809225099020341 11.120741292789859 14.144220587668293 0 0 0
143 1 3.2446440048646816 12.729241361708477 15.69995499862409 0 0 -1
145 1 6.4078849655079795 12.667556723898429 15.718301597348422 0 0 -1
242 1 1.6322340050365787 14.289398343956837 14.144814992660017 0 0 0
244 1 4.835230008214221 14.31621456755413 14.129829211272318 0 0 0
6 1 7.998941088755993 1.642090614185703 1.4946189905795089 0 0 0
8 1 11.170651000546338 1.6388589752536051 1.4972204812174092 0 0 0
10 1 14.327987832018103 1.6401221589867083 1.5025042909652493 0 0 0
16 1 7.98523191678959 4.796552760202933 1.4879778425931913 0 0 0
18 1 11.16512451983821 4.791089131371663 1.5007518376869649 0 0 0
20 1 14.328785765649988 4.789433400706076 1.4740394684790725 0 0 0
128 1 7.982573547640967 7.955979834908583 1.4892244973712792 0 0 0
129 1 11.160100340023124 7.948395348484276 1.4973182715011837 0 0 0
130 1 14.323428031428005 7.9400961010600035 1.4913146787404363 0 0 0
136 1 7.986931996134276 11.120733685162513 1.4863849622117145 0 0 0
137 1 11.154485809351263 11.119946450577467 1.4892853319225217 0 0 0
140 1 14.321061192555392 11.118576933471292 1.4850465695146444 0 0 0
112 1 8.003236458868043 14.316569603776077 1.459080783922254 0 0 0
148 1 11.158723855868647 14.292808093217923 1.4853189882780495 0 0 0
150 1 14.317678878134938 14.288465265186336 1.4919528285048211 0 0 0
54 1 7.988610521229676 1.6328739284209886 4.658182356102346 0 0 0
32 1 9.57583106071402 0.0494402465230471 3.0694710310331117 0 0 0
224 1 12.740898001189896 0.05223714395489196 3.0719379779924685 0 0 0
44 1 11.165311301643976 1.6353212212534243 4.65240263341311 0 0 0
185 1 14.326429197268494 1.6144635813131296 4.65467967444483 0 1 0
42 1 9.573526669249512 3.2084204095374393 3.0690914097942312 0 0 0
64 1 7.975752458896463 4.7901613312395055 4.651420325328382 0 0 0
227 1 12.76252838375614 3.232862456742981 3.0966741105839426 0 0 0
43 1 11.116315115933865 4.776489954346122 4.64137989529779 0 0 0
88 1 9.569382790125937 6.374011412118077 3.0691896871597 0 0 0
50 1 12.754590645364072 6.347654955735475 3.0846613309992716 0 0 0
55 1 9.56986002444332 9.53612450450085 3.0722911866312654 0 0 0
153 1 7.98304160710373 7.952768809312786 4.653178128949681 0 0 0
154 1 11.157253567301394 7.939943162661657 4.651835505003764 0 0 0
164 1 12.735426462261605 9.529281066793079 3.070080760227423 0 0 0
155 1 14.32561689404261 7.969365843527308 4.621550158479731 0 0 0
172 1 9.572599793004567 12.708943038951444 3.065920070553958 0 0 0
161 1 7.990279330828292 11.123351198733642 4.649810714848467 0 0 0
138 1 12.731900724876665 12.701116608490253 3.0740200902033465 0 0 0
162 1 11.151791709826481 11.112075726565227 4.658682172598327 0 0 0
165 1 14.288308357775895 11.09677136211834 4.679070113473389 0 0 0
70 1 14.325303384476111 14.29948871220543 7.819465231111501 0 -1 0
171 1 7.987484565065101 14.289171977129397 4.653602137676891 0 0 0
30 1 11.155258289340793 14.288610508053795 4.652644820221554 0 0 0
197 1 14.32168297881019 14.292268210695413 4.654125776643724 0 -1 0
34 1 9.571676710166908 0.04408494183702377 6.233032104001736 0 0 0
31 1 7.982970711213191 1.6265022668608333 7.814037912871677 0 0 0
69 1 11.161131712135221 1.6294708516175334 7.807700808899492 0 0 0
33 1 12.740227699063631 0.04998629813861751 6.235172650418513 0 0 0
239 1 14.324869612682102 1.6362112343774 7.80992148591943 0 0 0
59 1 9.571290524423556 3.206047151103963 6.235633627959625 0 0 0
73 1 7.97850145342558 4.788548096310171 7.814652134499347 0 0 0
60 1 12.755719159278435 3.2235353539891394 6.216410160239647 0 0 0
74 1 11.16176242132936 4.787163066018248 7.8069581286319005 0 0 0
75 1 14.298913817207735 4.774755374413828 7.86496486598376 0 0 0
181 1 9.566423679338996 6.366305774640839 6.234470021798677 0 0 0
65 1 12.74151618725382 6.300631928305928 6.146275043871299 0 0 0
118 1 9.569587542375158 9.52831544902334 6.238889535614835 0 0 0
179 1 7.980781514494827 7.951006240034835 7.819321673897439 0 0 0
194 1 12.721659513689733 9.494288645406094 6.262504790188184 0 0 0
189 1 11.147584258331795 7.91479080828305 7.828494026374331 0 0 0
176 1 15.491969989266368 9.102111408264886 6.70048785065758 -1 0 0
184 1 9.570398037313174 12.70118662759559 6.235480274709901 0 0 0
193 1 7.984627373483464 11.118235270221792 7.818365134162949 0 0 0
222 1 11.153850293737136 11.110901172577158 7.820998739980897 0 0 0
163 1 12.735029980807324 12.70424166335478 6.237068023101004 0 0 0
195 1 14.316987099372923 11.170325512770475 7.826669556683676 0 0 0
198 1 7.98383086740929 14.285672870605929 7.816976799022542 0 0 0
199 1 11.155173885867656 14.28533428158482 7.816217999119423 0 0 0
82 1 9.572257758184467 0.04214709176303553 9.392737754578098 0 0 0
84 1 12.74226610299698 0.041627636664076206 9.398725429986401 0 0 0
92 1 9.569330232037109 3.208426692932402 9.38715629293706 0 0 0
94 1 12.730111630333043 3.1869839158714575 9.406948379724925 0 0 0
99 1 9.54948541687406 6.360773401576047 9.409411304616702 0 0 0
100 1 12.60773406855214 6.238788984224879 9.559834967850948 0 0 0
119 1 9.567996418652703 9.531306519018866 9.400444090215197 0 0 0
214 1 12.739399373392473 9.529220305517349 9.405531766919205 0 0 0
223 1 9.569485516315417 12.700498496685393 9.39820977771152 0 0 0
213 1 12.736099229558867 12.706405002761448 9.405962953931944 0 0 0
107 1 9.578759848322628 0.04033715906113749 12.556891456938551 0 0 0
81 1 7.989847760281767 1.6338824580376012 10.962286896892806 0 0 0
83 1 11.155483898172214 1.6135520203146625 10.982180398878407 0 0 0
109 1 12.747813381727584 0.04073315418332975 12.565022623066733 0 0 0
188 1 14.330241787680306 1.6214654726608888 10.983546743378492 0 0 0
117 1 9.597191231417591 3.2367318265457032 12.537768461667277 0 0 0
91 1 7.968694405305484 4.7896438452205885 10.98360256460018 0 0 0
85 1 12.751704368721015 3.206443285450336 12.56895469721319 0 0 0
93 1 11.109415952616763 4.7434127724307835 11.028444338963244 0 0 0
95 1 14.333011826214138 4.777772553913119 10.999275543405487 0 0 0
25 1 9.566510680233813 6.38226926352441 12.568563099388289 0 0 -1
125 1 12.730997963195705 6.362667162649733 12.59024376469956 0 0 0
237 1 9.566789826389533 9.540022720155964 12.5679918966662 0 0 0
175 1 7.975993343269228 7.956813018774935 10.98465320367183 0 0 0
204 1 11.141746359765456 7.958944358134946 10.995953569056052 0 0 0
230 1 12.738460772439929 9.535246769478384 12.5720097511873 0 0 0
205 1 14.30784650450553 7.932585017982543 11.00652527543116 0 0 0
211 1 7.98262782716017 11.120088804321995 10.981063072740394 0 0 0
247 1 9.574301771489273 12.700445964424848 12.560604343919904 0 0 0
212 1 11.15493612208521 11.117633193787714 10.983520728470365 0 0 0
240 1 12.743348922841548 12.701585415497554 12.566661099103834 0 0 0
215 1 14.324154219931943 11.11653012090532 10.987287837124212 0 0 0
221 1 7.986597668798758 14.28727687472584 10.975808869685373 0 0 0
249 1 11.157484896860373 14.2834746629324 10.981031682216539 0 0 0
225 1 14.329428211283911 14.285073202090526 10.983731972376535 0 0 0
106 1 8.099919649308472 1.7430499235627444 14.033379573495184 0 0 0
7 1 9.595184548214645 0.06536399603878017 15.714288890110591 0 0 -1
108 1 11.177577077852629 1.6343898247083304 14.143432088506852 0 0 0
9 1 12.747701642060168 0.04782893558292013 15.733301704419617 0 0 -1
110 1 14.331847320282304 1.6278614143000025 14.151866090643225 0 0 0
116 1 7.988667051582058 4.81015199118165 14.142010585591962 0 0 0
17 1 9.579391493860141 3.218172494752441 15.736901858166807 0 0 -1
19 1 12.746902893275427 3.2099362363824087 15.74236990158566 0 0 -1
124 1 11.155562774090447 4.789869209284927 14.164364526279144 0 0 0
120 1 14.330225828432075 4.788500079937645 14.155793073648589 0 0 0
24 1 9.570523132800442 6.376931330472394 15.736585456551005 0 0 -1
229 1 12.740062555755914 6.371866029038202 15.742266656272308 0 0 0
228 1 7.981626899482375 7.958725570588281 14.149095927768661 0 0 0
29 1 9.570787532666952 9.537983928299056 15.734964446157749 0 0 0
173 1 11.153138491194365 7.956989988103294 14.157187013519298 0 0 0
139 1 12.741115698449887 9.53588502986466 15.73513648436591 0 0 -1
200 1 14.325653889357962 7.951691570217477 14.156708636293756 0 0 0
236 1 7.988096656059182 11.115999857534495 14.143118360063422 0 0 0
147 1 9.575039898622014 12.706407349175308 15.72767030761272 0 0 -1
149 1 12.741230818127013 12.703981577451623 15.731803562273395 0 0 -1
238 1 11.156832329713353 11.120503200611301 14.150032608717478 0 0 0
141 1 14.327245022197443 11.119374352819658 14.149146335663984 -1 0 -1
246 1 8.00092278968 14.279507817474617 14.13107878499261 0 0 0
248 1 11.163150026695421 14.287428904994002 14.145502374114175 0 0 0
250 1 14.32908054324885 14.286085265780727 14.14883150317505 0 0 0
190 1 14.018259623002034 7.634458188410618 8.018880047426471 0 0 0

Velocities

2 0 0 0
4 0 0 0
12 0 0 0
14 0 0 0
126 0 0 0
158 0 0 0
132 0 0 0
134 0 0 0
142 0 0 0
144 0 0 0
27 0 0 0
26 0 0 0
28 0 0 0
58 0 0 0
159 0 0 0
37 0 0 0
36 0 0 0
38 0 0 0
39 0 0 0
40 0 0 0
180 0 0 0
47 0 0 0
48 0 0 0
151 0 0 0
156 0 0 0
152 0 0 0
22 0 0 0
160 0 0 0
157 0 0 0
46 0 0 0
168 0 0 0
170 0 0 0
45 0 0 0
167 0 0 0
169 0 0 0
196 0 0 0
35 0 0 0
67 0 0 0
52 0 0 0
53 0 0 0
56 0 0 0
71 0 0 0
57 0 0 0
72 0 0 0
41 0 0 0
61 0 0 0
62 0 0 0
63 0 0 0
186 0 0 0
80 0 0 0
177 0 0 0
187 0 0 0
178 0 0 0
191 0 0 0
174 0 0 0
182 0 0 0
192 0 0 0
183 0 0 0
51 0 0 0
166 0 0 0
76 0 0 0
78 0 0 0
68 0 0 0
86 0 0 0
66 0 0 0
90 0 0 0
96 0 0 0
97 0 0 0
98 0 0 0
206 0 0 0
208 0 0 0
210 0 0 0
216 0 0 0
218 0 0 0
220 0 0 0
77 0 0 0
101 0 0 0
79 0 0 0
103 0 0 0
219 0 0 0
87 0 0 0
111 0 0 0
89 0 0 0
104 0 0 0
115 0 0 0
121 0 0 0
122 0 0 0
123 0 0 0
231 0 0 0
201 0 0 0
202 0 0 0
233 0 0 0
203 0 0 0
243 0 0 0
241 0 0 0
207 0 0 0
209 0 0 0
245 0 0 0
217 0 0 0
105 0 0 0
1 0 0 0
102 0 0 0
3 0 0 0
5 0 0 0
146 0 0 0
113 0 0 0
11 0 0 0
13 0 0 0
114 0 0 0
15 0 0 0
21 0 0 0
127 0 0 0
23 0 0 0
226 0 0 0
131 0 0 0
133 0 0 0
235 0 0 0
135 0 0 0
232 0 0 0
49 0 0 0
234 0 0 0
143 0 0 0
145 0 0 0
242 0 0 0
244 0 0 0
6 0 0 0
8 0 0 0
10 0 0 0
16 0 0 0
18 0 0 0
20 0 0 0
128 0 0 0
129 0 0 0
130 0 0 0
136 0 0 0
137 0 0 0
140 0 0 0
112 0 0 0
148 0 0 0
150 0 0 0
54 0 0 0
32 0 0 0
224 0 0 0
44 0 0 0
185 0 0 0
42 0 0 0
64 0 0 0
227 0 0 0
43 0 0 0
88 0 0 0
50 0 0 0
55 0 0 0
153 0 0 0
154 0 0 0
164 0 0 0
155 0 0 0
172 0 0 0
161 0 0 0
138 0 0 0
162 0 0 0
165 0 0 0
70 0 0 0
171 0 0 0
30 0 0 0
197 0 0 0
34 0 0 0
31 0 0 0
69 0 0 0
33 0 0 0
239 0 0 0
59 0 0 0
73 0 0 0
60 0 0 0
74 0 0 0
75 0 0 0
181 0 0 0
65 0 0 0
118 0 0 0
179 0 0 0
194 0 0 0
189 0 0 0
176 0 0 0
184 0 0 0
193 0 0 0
222 0 0 0
163 0 0 0
195 0 0 0
198 0 0 0
199 0 0 0
82 0 0 0
84 0 0 0
92 0 0 0
94 0 0 0
99 0 0 0
100 0 0 0
119 0 0 0
214 0 0 0
223 0 0 0
213 0 0 0
107 0 0 0
81 0 0 0
83 0 0 0
109 0 0 0
188 0 0 0
117 0 0 0
91 0 0 0
85 0 0 0
93 0 0 0
95 0 0 0
25 0 0 0
125 0 0 0
237 0 0 0
175 0 0 0
204 0 0 0
230 0 0 0
205 0 0 0
211 0 0 0
247 0 0 0
212 0 0 0
240 0 0 0
215 0 0 0
221 0 0 0
249 0 0 0
225 0 0 0
106 0 0 0
7 0 0 0
108 0 0 0
9 0 0 0
110 0 0 0
116 0 0 0
17 0 0 0
19 0 0 0
124 0 0 0
120 0 0 0
24 0 0 0
229 0 0 0
228 0 0 0
29 0 0 0
173 0 0 0
139 0 0 0
200 0 0 0
236 0 0 0
147 0 0 0
149 0 0 0
238 0 0 0
141 0 0 0
246 0 0 0
248 0 0 0
250 0 0 0
190 0 0 0
