LAMMPS data file via write_data, version 22 Jul 2025, timestep = 41042, units = metal

250 atoms
1 atom types

-3.8607738584090765e-06 15.825981860773894 xlo xhi
0 15.825978000000001 ylo yhi
0 15.825978000000001 zlo zhi

Masses

1 183.841

Atoms # atomic

11 1 1.7435403304295047 1.4653281358670496 1.5044059389544637 0 0 0
4 1 4.908633292425882 1.4653986014334635 1.504320231573359 0 0 0
180 1 1.7435228524982713 4.630581192979245 1.5044012457867357 0 0 0
14 1 4.9086476971363435 4.630578354174343 1.5043420205235116 0 0 0
131 1 1.7435109552461425 7.795815756546124 1.504429634157612 0 0 0
132 1 4.908743218347547 7.795706577092308 1.504454226085092 0 0 0
207 1 1.7435906686774736 10.96098450288003 1.5044311176834926 0 0 0
134 1 4.908881250594257 10.960831582923477 1.504533809254479 0 0 0
46 1 1.7435895522857758 14.126133833634938 1.5043624839920093 -1 0 0
83 1 4.908737428182366 14.126127665594584 1.5044153040954 0 0 0
52 1 1.7435812406034927 1.4654130949846333 4.66957745980587 0 0 0
185 1 4.908728108356995 1.465333017363175 4.669564489773397 0 1 0
37 1 1.7436701290386505 4.630521150874925 4.669670169329641 0 0 0
38 1 0.16097304836340454 3.0480071374613034 3.086972815990716 0 0 0
116 1 3.3261251290917198 3.047970418048401 3.0870003135104898 0 0 0
152 1 4.9087114706419825 4.630490390620544 4.6695755917368125 0 0 0
40 1 6.491276354675254 3.0479435728668034 3.0869003422868473 0 0 0
126 1 0.16097416528004077 6.213155650751658 3.086975497166711 0 0 0
157 1 1.7435855792712887 7.79575200168167 4.669584542423671 1 0 0
47 1 3.3261341218059237 6.213172994010286 3.087010454226247 0 0 0
212 1 4.908780879577684 7.795688721129834 4.669651830980504 0 0 0
48 1 6.491303799051747 6.213097414767191 3.087020883924061 0 0 0
156 1 0.16091681693971055 9.37841393121076 3.0869144083510256 0 0 0
22 1 3.326190313768633 9.378304855035312 3.0870543584525074 0 0 0
160 1 6.4914374685296234 9.37826989463836 3.0870873012291162 0 0 0
166 1 0.161001578365654 12.543550016635212 3.0869965142306786 0 0 0
176 1 1.7435807975745983 10.960959407096494 4.669577482808932 0 0 0
170 1 4.908792794312572 10.960926632472644 4.669605603983644 0 0 0
232 1 3.326192926679067 12.5435388833366 3.0870654246425815 0 0 0
45 1 6.491416315873456 12.543510479282647 3.0870433958620915 0 0 0
26 1 0.1609344733034165 15.708797747918647 3.0869308179309884 0 -1 0
167 1 1.7435931852643407 14.126148537884761 4.669587198492379 0 0 0
169 1 3.3261630877828545 15.708745451898398 3.0869793016461005 0 0 0
192 1 4.908752887562131 14.126135741649874 4.669558703962349 0 0 0
159 1 6.491296638556453 15.70878727395372 3.086884723089928 0 -1 0
51 1 1.7435695327584928 1.4653314024931392 7.834720044111869 0 0 0
227 1 4.908860238547143 1.4652094570561718 7.834854728660772 0 0 0
70 1 1.7435780702558246 4.630489121965842 7.834705648855285 0 -1 0
71 1 0.1610021887209341 3.047969518523704 6.252122941281042 0 0 0
57 1 3.3262148412391674 3.047885515763316 6.252210022752938 0 0 0
72 1 4.9088575202158955 4.630435890754449 7.834854104915955 0 0 0
41 1 6.491352451154065 3.0478620853213076 6.2521694168717055 0 0 0
75 1 0.1610095404904518 6.213172591665439 6.252133975010962 1 0 0
186 1 1.7436526667612666 7.795686635283757 7.834777927128283 0 0 0
62 1 3.326174071584427 6.213096487718271 6.252171526851054 0 0 0
210 1 4.908801877813528 7.795655754231087 7.834798250792961 0 0 0
63 1 6.491404487253617 6.213037833899302 6.252214253641133 0 0 0
61 1 0.1610567265490415 9.378303914918233 6.2521868442836706 0 0 0
177 1 3.32619427273573 9.378270901836125 6.252191798708752 0 0 0
19 1 6.491391090263324 9.378341297477562 6.252192040993379 0 0 0
174 1 0.16106951264798924 12.54353646462573 6.25218761097965 1 0 0
191 1 1.7436078513765492 10.960925069622357 7.834787444309603 0 0 0
182 1 3.326136019634361 12.543560407904558 6.252131094580719 0 0 0
121 1 4.90878187553371 10.96092543203911 7.8347765291830616 0 0 0
9 1 6.491471434898821 12.543515161838808 6.252169063684631 0 -1 0
78 1 0.16098384039555566 15.708745288276367 6.252158386575715 1 -1 0
97 1 1.743563055983303 14.126134085161231 7.8347458349343535 0 0 0
196 1 3.3261792194450157 15.708668236110887 6.2521725760464015 0 0 0
80 1 4.908765006378378 14.1260696328659 7.834759313307399 0 -1 0
34 1 6.491394836576726 15.708630211419935 6.252163554083832 0 -1 0
86 1 0.16090281348982974 3.0479413952326793 9.417270156557775 0 0 0
67 1 3.3261728778576853 3.0478597185423673 9.41734706252612 0 0 0
90 1 6.491441690466602 3.0477818369755005 9.417438734742579 0 0 0
222 1 0.1610214090346361 6.213093498496332 9.417299070488227 0 0 0
178 1 3.3262167496772195 6.213035903845836 9.417398894441396 0 0 0
98 1 6.4913989680790305 6.213073075372724 9.417395807225486 0 0 0
203 1 0.16108915456580167 9.378267738063377 9.417433779568308 1 0 0
248 1 3.326194417897872 9.378338422357146 9.417385522140005 0 0 0
209 1 6.491377261142376 9.378300884704213 9.417371779785151 0 0 0
216 1 0.16104575061723508 12.54350837634748 9.417410023965493 0 0 0
218 1 3.3261725672289155 12.543513483830335 9.417464266194353 0 0 0
220 1 6.49136897467847 12.543479250910243 9.41736196059104 0 0 0
24 1 0.16088808105403285 15.708784936513982 9.417288680692812 0 -1 -1
76 1 3.326167335730686 15.708628891917854 9.417387788196967 0 -1 0
68 1 6.491418538190383 15.708595910786961 9.417414108118015 0 -1 0
77 1 1.7434777299895166 1.4652663083982234 10.99987867170863 0 0 0
168 1 4.908725412988449 1.4652363657343888 10.999954244640506 0 0 0
187 1 1.7435417322200168 4.630493668256488 10.999858176772541 0 0 0
87 1 0.16094567686582914 3.0478737128169295 12.582531282642586 0 0 0
102 1 3.326065526377094 3.0478765987402694 12.582474929094621 0 0 0
140 1 4.908779066943358 4.6304539638057225 10.999993519714096 0 0 0
74 1 6.491314734097861 3.0478279592078716 12.582570401645956 0 0 0
125 1 0.16102997646001038 6.213109110316582 12.58257757071505 1 0 0
201 1 1.7436033483807278 7.795713113783141 10.999997421608194 0 0 0
123 1 4.908798645228804 7.79570753207004 10.999980549836158 0 0 0
113 1 3.3261129021305327 6.213167053270562 12.582509975624841 0 0 0
129 1 6.491373278631575 6.213106141626098 12.582555447091858 0 0 0
231 1 0.161040480682321 9.378413176624557 12.582624666518242 0 0 0
233 1 3.326218610201675 9.378293382337548 12.582683881022058 0 0 0
25 1 6.491379063555111 9.378260563879019 12.582620883954002 0 0 -1
190 1 1.7436374526189937 10.960930374407502 11.00004305226121 1 0 0
208 1 0.16099124759025807 12.543543957766103 12.58255682261783 0 0 0
200 1 4.908792533821523 10.960890815036478 11.000058555391323 0 0 0
143 1 3.326172032852688 12.543522388871732 12.582652955835728 0 0 -1
245 1 6.4914083225115355 12.54343750333067 12.582660269049335 0 0 0
217 1 1.7435629651304547 14.126097832564362 10.999980620398674 0 0 0
223 1 0.1609480697148259 15.70868175770422 12.5825596607629 1 -1 0
79 1 3.3261207856339183 15.708667048579553 12.582545401623392 0 -1 0
105 1 4.908763637371426 14.126031655673378 11.000017139066541 0 -1 0
244 1 6.4912833181059275 15.708637165594839 12.58259016545702 0 0 0
111 1 1.7435045421368638 1.4652817925380741 14.165119268436245 0 0 0
5 1 4.90863701558907 1.4653407619134162 14.1651086647278 0 0 -1
110 1 1.7435244411871325 4.630491883758526 14.165166555699198 1 0 0
2 1 0.16095219880101566 3.0479225409513364 15.747752648750296 1 0 0
114 1 4.908656130626105 4.630560151384683 14.165083491776338 0 0 0
13 1 3.326057668567442 3.0479885948475514 15.747684475544538 0 0 -1
15 1 6.491266236331868 3.0479718886056606 15.747690922111618 0 0 -1
122 1 1.7435496472170275 7.7958271308419445 14.165199493072777 0 0 0
12 1 0.16096187865001313 6.21316734395114 15.747796262891246 1 0 -2
235 1 4.908782233692051 7.79567504251515 14.16523535312958 0 0 0
127 1 3.3260799138765225 6.213184991673573 15.747775132949725 0 0 -1
135 1 6.491340241389563 6.213078300076571 15.747828014620321 0 0 -1
141 1 0.1609213219807117 9.37841553999598 15.747763102930083 0 0 -1
133 1 3.326186626145012 9.37834403774464 15.747851397445174 0 0 -1
158 1 6.4914542000886275 9.378209095987488 15.74791192903952 0 0 -1
49 1 1.7435972212547615 10.96099405442196 14.165259478267354 0 0 -1
150 1 0.16101678166119415 12.543560937145742 15.747782738058957 1 0 -1
142 1 3.3262356873167094 12.543488875178205 15.747854544953835 0 0 -1
234 1 4.908856771206022 10.960831909407938 14.165288566410833 0 0 0
145 1 6.491354180551569 12.543490247131356 15.747833774519634 0 0 -1
1 1 0.1609466095043869 15.708720031410085 15.747731713349213 0 -1 -1
242 1 1.7436414629807055 14.126020570204016 14.165233272578263 0 0 0
27 1 4.908728753576153 14.126093929011384 14.165235930012894 0 0 0
3 1 3.3261204040263466 15.708685680413781 15.747754646052556 0 -1 -1
144 1 6.491292112057149 15.708768113732685 15.747744189976117 0 0 -1
146 1 8.07390594560441 1.465378258807201 1.5043076698504738 0 1 0
8 1 11.23914547458478 1.4653618528819072 1.5043273625295233 0 0 0
106 1 14.404411500409857 1.4652967365133567 1.5044235922925864 0 1 0
17 1 8.073925173064547 4.630511496591675 1.5043981585351704 0 0 0
16 1 14.404405015328846 14.126125544502242 7.834730880658971 0 0 0
243 1 11.239184397895869 4.63050114249636 1.5043355072503912 0 0 0
225 1 14.404337222191872 4.630559424589138 1.5043519250834256 0 1 1
128 1 8.074033634269524 7.7956560703975155 1.5044847794306293 0 0 0
229 1 11.239182008605763 7.795753187816889 1.5044021512443917 0 0 1
130 1 14.404304708069715 7.795792212568634 1.5043178613944568 0 0 0
136 1 8.073985508088201 10.960925788854341 1.5044499816229597 0 0 0
137 1 11.239132883466613 10.96101580804813 1.5043601423700692 0 0 0
164 1 14.404336796279626 10.961051344741142 1.504347969606091 0 0 0
112 1 8.073905326463992 14.12616332183492 1.5043978769487076 0 0 0
224 1 11.239145050152992 14.126140145405962 1.5043738423169424 0 -1 0
101 1 14.404390853937363 14.126140888616119 1.5044035030339067 -1 -1 1
54 1 8.07388644072281 1.4652689397328098 4.669476771102461 0 0 0
44 1 11.23912746362028 1.4652850580242582 4.669503925926594 0 0 0
56 1 14.404391480410446 1.4653289888467451 4.669538108760809 -1 0 0
42 1 9.656537868706751 3.047875836627693 3.086944159041301 0 0 0
64 1 8.073864524381687 4.630496818150285 4.669540606717609 0 0 0
35 1 11.23917156082799 4.630494749070622 4.669525271684231 0 0 0
36 1 12.82175889836348 3.0479245367285634 3.0869512584811947 -1 0 0
65 1 14.404385432897666 4.630582065746413 4.669523175853299 0 0 0
88 1 9.656583247535002 6.213112583892577 3.087029303097272 0 0 0
161 1 8.0740027853616 7.795716259301502 4.669602471427353 0 0 0
181 1 11.23920826535848 7.795829525526213 4.669547704124763 0 0 0
50 1 12.821804002393032 6.213168923983696 3.0869606421886036 0 0 0
155 1 14.404414724664054 7.795816084881898 4.669510114104387 0 0 0
55 1 9.65663115488733 9.378416450573871 3.087039774654975 0 0 0
154 1 12.821772853606081 9.378416345735808 3.0869191178538697 0 0 0
66 1 9.656565327415821 12.543547578373676 3.0869892084427755 0 0 0
172 1 8.074050460782098 10.960933558375206 4.669635491105445 0 0 0
162 1 11.239270261783162 10.96099484272523 4.669594681255612 0 0 0
138 1 12.821792534186113 12.54356279692566 3.087014478027261 0 0 0
165 1 14.404420576830354 10.96098396534729 4.669586963799808 0 0 0
32 1 9.656567547398089 15.708684272252412 3.086947734312303 0 -1 0
171 1 8.073989380038018 14.126100790438626 4.669560718313792 0 0 0
103 1 12.821741144943418 15.708722384408789 3.0869440127961836 -1 -2 0
30 1 11.239243870943314 14.126023001715815 4.669639609422017 0 0 0
197 1 14.404351959828398 14.126134448083572 4.669585008201553 0 -1 0
31 1 8.073958192492737 1.4652369448770395 7.83472411448983 0 0 0
91 1 11.239115281350099 1.4653419585775445 7.834634418192619 0 0 0
239 1 14.40430867303886 1.4653972930971613 7.834628150156082 0 0 0
59 1 9.656480287387318 3.047878069002518 6.252064598275135 0 0 0
149 1 8.07399744529005 4.630456138370077 7.834778042952853 0 0 -1
60 1 12.82169118004356 3.047988949883361 6.252056907281562 0 0 0
99 1 11.23908823918598 4.630560707767344 7.834655217519878 0 0 0
206 1 14.404327292180003 4.630578797268883 7.834645818711074 0 0 0
179 1 8.073986808196253 7.795708321792312 7.834795860680696 0 0 0
175 1 9.656515729903818 6.213169224738206 6.252111884112961 0 0 0
92 1 12.82178162463693 6.213184996653559 6.252078819792207 0 0 0
189 1 11.23924167393814 7.795675390092526 7.834780972111409 0 0 0
43 1 14.404439756425754 7.79570561255337 7.83474135749037 0 0 0
118 1 9.656692577442165 9.378295324955657 6.252215545565142 0 0 0
194 1 12.821860382773734 9.378344600623938 6.252183896801022 0 0 0
184 1 9.656663935649915 12.54352454348093 6.252168565248304 0 0 0
193 1 8.074067809388733 10.960892821458389 7.834786878749476 0 0 0
163 1 12.821866494949482 12.54348956465345 6.252230060407829 0 0 0
214 1 11.239298726977404 10.96083244743003 7.834852192305387 0 0 0
195 1 14.404522032407694 10.960828706871645 7.834877748082619 0 0 0
69 1 9.65655318910661 15.708670685765632 6.252118790424208 0 -1 0
198 1 8.074026205577583 14.126033838869406 7.834759316660903 0 0 0
199 1 11.239246824085267 14.126093921364008 7.834723853093453 0 0 0
33 1 12.821764841178762 15.7086861526373 6.252117274327889 0 -1 0
53 1 9.65657463372978 3.0478287089283023 9.417312652770923 0 -1 0
94 1 12.821698205561434 3.0479708676071415 9.417262554500153 0 0 0
104 1 9.656558777792787 6.213106603541747 9.41737138255881 0 0 0
100 1 12.821834039106948 6.213077506903117 9.417338916543969 0 0 0
119 1 9.656627092707081 9.378260807334254 9.417375520444269 0 0 0
73 1 12.821919629187214 9.378207151452804 9.41745153598448 0 0 0
221 1 9.656670083741961 12.543438237565784 9.417402031418256 0 0 0
213 1 12.821844702103542 12.543488925241949 9.417348328624657 0 0 0
39 1 9.65659829664513 15.708637112311495 9.417276946112032 0 0 0
84 1 12.82175505836805 15.70876696118195 9.417285328187111 0 -1 0
107 1 8.074012008416831 1.4652110640702045 11.000007367864425 0 0 0
120 1 11.239163608874069 1.465294372363256 10.999909011142298 0 0 0
188 1 14.40429502520497 1.4653771599811911 10.999898420749822 0 0 0
81 1 8.07397540805317 4.630449477838248 10.999973090480273 0 0 0
20 1 9.656534385618247 3.0478123699543156 12.582529037509667 0 0 0
23 1 12.821728811794962 3.047941646804145 12.582553771383045 0 0 0
93 1 11.239175333034634 4.6304827769590755 10.999865164619115 0 0 0
96 1 14.404382910909671 4.630507867229237 10.999920967147105 -1 0 0
151 1 8.074043195523362 7.7956167373650676 11.000039791069023 1 0 0
124 1 9.656593752630233 6.213061339196786 12.582591015741448 0 0 0
204 1 11.239229671310104 7.795652798442804 10.9999888447209 0 0 0
183 1 12.821854218075622 6.213115978984163 12.58255783572128 0 0 1
89 1 14.404468862164038 7.795652283689279 11.000030625879672 0 0 0
237 1 9.656557115342656 9.378255605557749 12.58255271669189 0 0 0
230 1 12.821846719195229 9.378311751988656 12.582591427149191 0 0 0
211 1 8.073973925945475 10.960833972902961 10.999966914037 0 0 0
247 1 9.656503591728866 12.543497330173562 12.582495866667903 0 0 0
205 1 11.23923291649639 10.960841832466595 10.999979160371106 0 0 0
6 1 12.82177481478924 12.543550620422264 12.58249069900647 0 0 0
215 1 14.404436192260373 10.960924157834016 10.99998106756205 0 0 0
82 1 8.073981092761311 14.12605061005022 10.999973747121713 0 -1 0
7 1 9.65656577925676 15.708622694034624 12.582558393266225 0 -1 -1
249 1 11.239192384069892 14.12610756732419 10.999873030889326 0 0 0
58 1 12.821787684292115 15.70870908811544 12.58253693797467 0 0 0
108 1 14.404384617744125 14.126161084189505 10.999897063455322 0 0 0
219 1 8.07391496845132 1.4652940404413515 14.165155390826541 0 0 0
85 1 11.239183372472924 1.4653638678011003 14.165176084896968 0 0 0
228 1 14.404313439454278 1.4653600669923834 14.16513887974839 0 0 0
18 1 9.656557861456763 3.0479420127778742 15.74772327475375 0 0 -1
153 1 8.073868363520258 4.630484439135382 14.165170119856622 0 0 0
117 1 11.239147029893756 4.630497372537191 14.165144167120227 0 0 0
95 1 14.404320834519169 4.630499126260293 14.165179298414984 0 0 0
28 1 9.656559657765133 6.213120147883846 15.747849543255745 0 0 -1
202 1 8.073990298320991 7.795654251864929 14.165224080562783 0 0 0
21 1 12.821734979361864 6.21311267407851 15.74772867292284 -1 0 -1
173 1 11.239194924805572 7.7957842036743195 14.165190205091758 0 0 0
226 1 14.404386765279137 7.79574958553137 14.165176308116228 -1 0 0
29 1 9.656596023175673 9.37831432181583 15.74784062707035 0 0 0
139 1 12.82172729509458 9.378390989209088 15.74772021356128 0 0 -1
236 1 8.073983599256387 10.960842779166487 14.165225498090456 0 0 0
147 1 9.656496224438408 12.543551164201771 15.747767547003736 0 0 -1
238 1 11.2391026130693 10.960965202593748 14.165096854466873 0 0 0
148 1 12.821702021532497 12.543581904902055 15.74769414271476 0 0 -1
240 1 14.40434674442681 10.961014070840225 14.165125076440859 0 0 0
246 1 8.07388080311455 14.126108093268988 14.165182040307341 0 0 0
109 1 9.656543883149078 15.708709618030646 15.747779060524518 0 -1 0
115 1 11.239174372489966 14.126113610578631 14.165166571028477 0 0 0
250 1 12.821756535691787 15.708734739357423 15.747748086091764 0 0 0
241 1 14.404360677444924 14.12613834236968 14.165135732979618 0 0 0
10 1 12.821713055628946 3.047983027868532 15.747707067680386 0 0 -1

Velocities

11 0 0 0
4 0 0 0
180 0 0 0
14 0 0 0
131 0 0 0
132 0 0 0
207 0 0 0
134 0 0 0
46 0 0 0
83 0 0 0
52 0 0 0
185 0 0 0
37 0 0 0
38 0 0 0
116 0 0 0
152 0 0 0
40 0 0 0
126 0 0 0
157 0 0 0
47 0 0 0
212 0 0 0
48 0 0 0
156 0 0 0
22 0 0 0
160 0 0 0
166 0 0 0
176 0 0 0
170 0 0 0
232 0 0 0
45 0 0 0
26 0 0 0
167 0 0 0
169 0 0 0
192 0 0 0
159 0 0 0
51 0 0 0
227 0 0 0
70 0 0 0
71 0 0 0
57 0 0 0
72 0 0 0
41 0 0 0
75 0 0 0
186 0 0 0
62 0 0 0
210 0 0 0
63 0 0 0
61 0 0 0
177 0 0 0
19 0 0 0
174 0 0 0
191 0 0 0
182 0 0 0
121 0 0 0
9 0 0 0
78 0 0 0
97 0 0 0
196 0 0 0
80 0 0 0
34 0 0 0
86 0 0 0
67 0 0 0
90 0 0 0
222 0 0 0
178 0 0 0
98 0 0 0
203 0 0 0
248 0 0 0
209 0 0 0
216 0 0 0
218 0 0 0
220 0 0 0
24 0 0 0
76 0 0 0
68 0 0 0
77 0 0 0
168 0 0 0
187 0 0 0
87 0 0 0
102 0 0 0
140 0 0 0
74 0 0 0
125 0 0 0
201 0 0 0
123 0 0 0
113 0 0 0
129 0 0 0
231 0 0 0
233 0 0 0
25 0 0 0
190 0 0 0
208 0 0 0
200 0 0 0
143 0 0 0
245 0 0 0
217 0 0 0
223 0 0 0
79 0 0 0
105 0 0 0
244 0 0 0
111 0 0 0
5 0 0 0
110 0 0 0
2 0 0 0
114 0 0 0
13 0 0 0
15 0 0 0
122 0 0 0
12 0 0 0
235 0 0 0
127 0 0 0
135 0 0 0
141 0 0 0
133 0 0 0
158 0 0 0
49 0 0 0
150 0 0 0
142 0 0 0
234 0 0 0
145 0 0 0
1 0 0 0
242 0 0 0
27 0 0 0
3 0 0 0
144 0 0 0
146 0 0 0
8 0 0 0
106 0 0 0
17 0 0 0
16 0 0 0
243 0 0 0
225 0 0 0
128 0 0 0
229 0 0 0
130 0 0 0
136 0 0 0
137 0 0 0
164 0 0 0
112 0 0 0
224 0 0 0
101 0 0 0
54 0 0 0
44 0 0 0
56 0 0 0
42 0 0 0
64 0 0 0
35 0 0 0
36 0 0 0
65 0 0 0
88 0 0 0
161 0 0 0
181 0 0 0
50 0 0 0
155 0 0 0
55 0 0 0
154 0 0 0
66 0 0 0
172 0 0 0
162 0 0 0
138 0 0 0
165 0 0 0
32 0 0 0
171 0 0 0
103 0 0 0
30 0 0 0
197 0 0 0
31 0 0 0
91 0 0 0
239 0 0 0
59 0 0 0
149 0 0 0
60 0 0 0
99 0 0 0
206 0 0 0
179 0 0 0
175 0 0 0
92 0 0 0
189 0 0 0
43 0 0 0
118 0 0 0
194 0 0 0
184 0 0 0
193 0 0 0
163 0 0 0
214 0 0 0
195 0 0 0
69 0 0 0
198 0 0 0
199 0 0 0
33 0 0 0
53 0 0 0
94 0 0 0
104 0 0 0
100 0 0 0
119 0 0 0
73 0 0 0
221 0 0 0
213 0 0 0
39 0 0 0
84 0 0 0
107 0 0 0
120 0 0 0
188 0 0 0
81 0 0 0
20 0 0 0
23 0 0 0
93 0 0 0
96 0 0 0
151 0 0 0
124 0 0 0
204 0 0 0
183 0 0 0
89 0 0 0
237 0 0 0
230 0 0 0
211 0 0 0
247 0 0 0
205 0 0 0
6 0 0 0
215 0 0 0
82 0 0 0
7 0 0 0
249 0 0 0
58 0 0 0
108 0 0 0
219 0 0 0
85 0 0 0
228 0 0 0
18 0 0 0
153 0 0 0
117 0 0 0
95 0 0 0
28 0 0 0
202 0 0 0
21 0 0 0
173 0 0 0
226 0 0 0
29 0 0 0
139 0 0 0
236 0 0 0
147 0 0 0
238 0 0 0
148 0 0 0
240 0 0 0
246 0 0 0
109 0 0 0
115 0 0 0
250 0 0 0
241 0 0 0
10 0 0 0
