LAMMPS data file via write_data, version 22 Jul 2025, timestep = 28376, units = metal

250 atoms
1 atom types

-0.0397523609430422 15.865730360943079 xlo xhi
0 15.825978000000001 ylo yhi
0 15.825978000000001 zlo zhi

Masses

1 183.841

Atoms # atomic

11 1 1.780369685711049 1.4477935049419093 1.551109282036158 0 0 0
4 1 4.960537970807273 1.4457469881273337 1.541974287455182 0 0 0
116 1 1.7772939299348331 4.614778100819144 1.5542842920571067 0 0 0
220 1 4.949979267575401 10.939589930407902 7.8764917499315805 0 0 0
14 1 4.950211485596833 4.6228894994409115 1.5272453413666471 0 0 0
9 1 6.445517957717801 12.427953982961112 6.18337475335629 0 -1 0
174 1 0.22706637246069314 12.501594197320314 6.23911669700033 1 0 0
126 1 1.7864232370716577 7.772917610879719 1.5771223702795394 0 0 0
132 1 4.953344270399103 7.774967446649268 1.5471167864711708 0 0 0
78 1 0.2583190715821293 15.715730456610892 6.219675228660119 1 -1 0
182 1 3.354704014296108 12.51952698528877 6.282062610038498 0 0 0
131 1 0.22558826194782716 9.32745837025729 0.08896101574277404 0 0 0
97 1 1.7814607083637792 14.112644613287975 7.87653399455602 0 0 0
196 1 3.3813860808592167 15.696773626752377 6.285855579935327 0 0 0
46 1 1.8131310791660935 10.953607788662568 1.5605387963433308 -1 0 0
49 1 0.1856894625214865 12.511552929709294 0.013490506415833095 0 0 0
134 1 4.963093154320828 10.943035450975415 1.543974105728244 0 0 0
80 1 4.942074198104829 14.092351389470728 7.859589879409768 0 -1 0
34 1 6.584246543902434 15.708002301359326 6.325704869266474 0 -1 0
142 1 1.7743071864786721 14.103173463250586 1.5561742402041578 0 0 0
83 1 4.962542331499963 14.109745064837947 1.5475762453463686 0 0 0
52 1 1.7906835146243933 1.4672017843775147 4.690285806278157 0 0 0
58 1 4.943125588093003 1.452414049702391 4.690030688102343 0 0 0
37 1 1.7821710783175526 4.64698280806512 4.683053083258785 0 0 0
38 1 0.18314789164778356 3.0388618327871937 3.124937588833436 0 0 0
39 1 4.89556052197126 4.685136898678954 4.641702646424836 0 0 0
185 1 3.3641550114122327 3.0377424760880927 3.114934176370569 0 1 0
40 1 6.513976343709461 3.0748652809608794 3.068401622592175 0 0 0
180 1 0.17187341056520505 6.213351014625597 3.1312115862694654 0 0 0
151 1 1.7702359341350706 7.793245235632272 4.694383649543294 1 0 0
47 1 3.3525218505900365 6.218250735493977 3.108481203506758 0 0 0
152 1 4.946287912602311 7.787237552267756 4.6998076385128895 0 0 0
48 1 6.54823643319824 6.205882350040378 3.114524556155805 0 0 0
156 1 0.15141221187899853 9.391973356332345 3.1067834518732727 0 0 0
22 1 3.350734497347927 9.357096619943416 3.11711956192568 0 0 0
160 1 6.533644665715737 9.340338636117734 3.1042763365461874 0 0 0
166 1 0.16290829423530773 12.510603969442379 3.1067586165407435 0 0 0
176 1 1.7652804865183254 10.935492280880744 4.685176947601242 0 0 0
170 1 4.9113676574129075 10.907024423953969 4.66661046265776 0 0 0
232 1 3.365516740337682 12.532556310350472 3.12770042126617 0 0 0
45 1 6.543932736499354 12.51822922600458 3.111501376419202 0 0 0
26 1 0.18598094015672537 15.689283610439952 3.1313473076158767 0 -1 0
167 1 1.7795761297511 14.100937581481753 4.691050389286822 0 0 0
169 1 3.3673388901272467 15.691786146462446 3.122910588415967 0 0 0
192 1 4.9566988403198025 14.117017527668912 4.703877552004404 0 0 0
159 1 6.54920163850977 15.690986693481198 3.129726056926389 0 -1 0
191 1 1.7805099330961203 10.94409832246046 7.8788176903475655 0 0 0
227 1 4.9376595321759735 1.4779371222491775 7.855215327074028 0 0 0
71 1 1.783047961906763 4.626439645451387 7.877654274830811 0 0 0
56 1 0.24127489101065486 3.1034899567416705 6.230411905688615 0 0 0
72 1 4.949845744501525 4.630083911807581 7.873465150155438 0 0 0
57 1 3.357318262632794 3.0550684312618643 6.275427586853018 0 0 0
41 1 6.397388208543643 3.176458387475258 6.134524451967649 0 0 0
186 1 1.7850623944082205 7.781127494060783 7.876366307005013 0 0 0
75 1 0.19969239964506916 6.220507264266613 6.270020064591703 1 0 0
178 1 4.953046901602915 7.783875743347923 7.8758751942626155 0 0 0
62 1 3.362536952858198 6.211159807392178 6.290179054334395 0 0 0
63 1 6.531993366086765 6.2223737321349715 6.272054009943142 0 0 0
61 1 0.20537804598023393 9.341913847124218 6.260244309802103 0 0 0
177 1 3.3621031619643187 9.363630359821489 6.29178831808909 0 0 0
210 1 6.536165992622499 9.351099694172895 6.279291085945428 0 0 0
12 1 0.20013173936243214 6.204350750787147 0.004958367229045635 0 0 0
51 1 1.78518003691439 1.4611725826335162 7.870061759427069 0 0 0
86 1 0.17702881158630618 3.041626082796342 9.47032261741824 0 0 0
35 1 3.3615101017373 3.0398180964725157 9.462134324942141 0 0 0
90 1 6.5120463775548645 3.056163619101079 9.496793546028483 0 0 0
222 1 0.19854219920948518 6.201560105625811 9.467512052951541 0 0 0
187 1 3.3710040787556363 6.203217708378202 9.463803188131603 0 0 0
98 1 6.545135000054721 6.204247495149365 9.460002527534261 0 0 0
190 1 0.19415295948864408 9.339499017931837 9.451466052478649 1 0 0
208 1 3.3683076598773236 9.361003524256159 9.46558235528595 0 0 0
179 1 6.541895257894129 9.35398814046924 9.45949480957392 0 0 0
216 1 0.16841245339471642 12.50548974366172 9.486422964909368 0 0 0
218 1 3.3580071594530287 12.524101587077674 9.465825629180841 0 0 0
221 1 6.527149636017951 12.504337171094175 9.485685353558006 0 0 0
24 1 0.17625475903592738 15.731205546551973 9.488945574863694 0 -1 -1
76 1 3.354997800161719 15.695932465037213 9.460171253661912 0 -1 0
68 1 6.44453735776953 15.695150058723401 9.44857426028202 0 -1 0
77 1 1.7960798471184707 1.4602105925640287 11.06121703373804 0 0 0
67 1 4.964274157828338 1.4528569663533386 11.050980888878756 0 0 0
158 1 6.54267831878601 9.341826956925134 15.810467321619765 0 0 -1
87 1 1.791973171236408 4.623980655068246 11.051678566923837 0 0 0
111 1 0.2782072690412104 3.104119819743625 12.711289575357844 0 0 0
66 1 4.957198703899879 4.625165190445671 11.051847456551554 0 0 0
104 1 3.389184544345889 3.0354330363374964 12.635529952676055 0 0 0
140 1 6.560988268991144 3.025336159094611 12.624360151045419 0 0 0
125 1 0.2190596220987839 6.20536894661181 12.669758600335868 1 0 0
201 1 1.7911279583979152 7.78001735144811 11.056976270953156 0 0 0
123 1 4.962296612518158 7.779148414944475 11.047934029653325 0 0 0
157 1 3.3804912682578667 6.199714350585467 12.635390022127105 0 0 0
121 1 6.554693151924981 6.194286667667889 12.629250091621149 0 0 0
231 1 0.2796364107219974 9.276519854901 12.746800129046367 0 0 0
233 1 3.385448561915759 9.353738689392815 12.644962966361534 0 0 0
25 1 6.549076898907355 9.354907551405706 12.63652879066723 0 0 -1
243 1 1.793882164232444 10.929930387233979 11.067457069887684 0 0 0
241 1 0.24574105748297295 12.523282604065152 12.700561271837996 1 0 0
207 1 3.3785741008286574 12.522817148876877 12.638407861452475 0 0 0
209 1 4.9556302844537905 10.934973830895185 11.05296564279655 0 0 0
245 1 6.550935066986913 12.520522382747728 12.633426809654006 0 0 0
168 1 0.21559670556415705 15.673344511366146 12.667211930792822 0 -1 0
217 1 1.7755941874789114 14.10662624230557 11.05053722257624 0 0 0
79 1 3.3795889876906418 15.687727712467476 12.630600605912088 0 -1 0
105 1 4.958074852543321 14.100767098040036 11.04932858528593 0 -1 0
244 1 6.567825532734658 15.686672633258448 12.612790245615157 0 0 0
102 1 1.7935998992080013 1.4459589796105137 14.222761965235701 0 0 0
5 1 4.968993042239 1.4426749643921357 14.207747584267542 0 0 -1
113 1 1.8185286059420718 4.63423834914013 14.249236287237846 0 0 0
114 1 4.971188323105697 4.6119113519582715 14.209245194287789 0 0 0
15 1 6.552089892157891 3.03168018764873 15.786020597676231 0 0 -1
122 1 1.8170642072200627 7.7555011210736176 14.267683281554342 0 0 0
235 1 4.969782817369486 7.771949797763206 14.216360324059233 0 0 0
143 1 1.7988531547199378 10.93265475433211 14.253315875538105 0 0 -1
203 1 4.963184471652712 10.939966598492884 14.21939410787152 0 0 0
242 1 1.7979683873758479 14.10526265294456 14.240504740399219 0 0 0
144 1 6.551808753933319 15.691800362235725 15.796904837224169 0 0 -1
27 1 4.966272891804253 14.108685535788895 14.212582031529122 0 0 0
3 1 3.3769041811888973 15.69075138322519 15.797849987415038 0 -1 -1
145 1 6.553976462270486 12.519360428286493 15.798889766298016 0 0 -1
13 1 3.3768154089845765 3.025334814998534 15.793795966484597 0 0 -1
133 1 3.382209684542702 9.357379726630713 15.805624875496042 0 0 -1
234 1 3.377038443551148 12.529334080202913 15.80066922461053 0 0 0
110 1 0.19665530519594196 3.034475637709474 15.81400949053922 1 0 0
1 1 0.2004578117802321 15.691782382069915 15.815116903755497 0 -1 -1
135 1 6.550138223047414 6.189900669922422 15.802299706624842 0 0 -1
127 1 3.3853731651453747 6.194572700100464 15.8060585801526 0 0 -1
6 1 8.142382940667288 1.4522012223493173 1.533684293387001 0 0 0
8 1 11.330291234125006 1.4403274336262786 1.5462137274417478 0 0 0
10 1 14.49822393221872 1.448457175376999 1.5587519226263142 0 0 0
17 1 8.153654971749598 4.627355515831581 1.5412691656008295 0 0 0
18 1 11.327450427690962 4.598479584673019 1.54830699316704 0 0 0
31 1 7.956141398927532 1.8771027515332908 7.649586048218126 0 0 0
20 1 14.493542436544717 4.62890753526583 1.5628859374351818 0 0 0
128 1 8.120712793361964 7.775928214275838 1.5485737348441506 0 0 0
198 1 8.02817169733737 13.75661380047688 7.7175971696901815 0 0 0
195 1 14.586076430657274 10.91597049730904 7.783092450880717 0 0 0
130 1 14.509848968064968 7.771349830271939 1.5648788526466304 0 0 0
29 1 9.771385640350942 9.326633375418846 0.015775030955332617 0 0 1
139 1 12.897186015606957 9.333889839305012 0.04624176132686654 0 0 0
136 1 8.151639644996537 10.92368056776001 1.5467311292616959 0 0 0
199 1 10.780473201158863 14.160549760685091 7.5221613100117475 0 0 0
137 1 11.321569729557236 10.950378956318147 1.555758972764856 0 0 0
149 1 12.962052255690804 12.469509857343281 0.031293206572434895 0 0 0
112 1 8.147943161123052 14.102460983491264 1.5502147876895622 0 0 0
33 1 12.885444189151977 15.679523821129733 6.403099076710333 0 -1 0
148 1 11.340754456831556 14.09068251016208 1.5522284585997161 0 0 0
150 1 14.499225045279648 14.131871529808269 1.5670479696317239 0 0 0
54 1 8.05139594237507 1.555337375610041 4.599110346835386 0 0 0
44 1 11.334736332485758 1.467154506166167 4.700158122915263 0 0 0
103 1 14.49951037374214 1.4534140506549977 4.713505707219427 -1 -1 0
42 1 9.736511616008402 3.049177218605194 3.110938292792459 0 0 0
64 1 8.13407333733761 4.6556832467220435 4.67258360293761 0 0 0
200 1 11.338397449567712 4.655058062639851 4.676341768814942 0 0 0
36 1 12.9150439174365 3.0429290701364566 3.1349351607962967 -1 0 0
65 1 14.488938144911833 4.6358801131772776 4.697013890623074 0 0 0
88 1 9.754219460985476 6.22831592002334 3.0946064814506427 0 0 0
161 1 8.144711816207082 7.780472319978591 4.681842505440403 0 0 0
50 1 12.88943164863986 6.2442944546724375 3.09892600493054 0 0 0
154 1 11.338309757308979 7.8006455352586785 4.704823293482913 0 0 0
155 1 14.482002580303677 7.805028014954316 4.683334113877965 0 0 0
55 1 9.77062944175755 9.332046621334849 3.0917707223592665 0 0 0
164 1 12.923179172822351 9.368828859779946 3.0877336894895366 0 0 0
19 1 8.095416074812533 10.867724534359963 4.629549605282899 0 0 0
172 1 9.737236468363003 12.507279684758675 3.1174484286728763 0 0 0
162 1 11.362219774258763 10.907124766674892 4.660037826862176 0 0 0
138 1 12.927486927194982 12.506307076257308 3.137736539427384 0 0 0
165 1 14.48195903405202 10.944079919835243 4.718873126476616 0 0 0
32 1 9.725153135264687 15.69721052040215 3.1191382523091007 0 -1 0
171 1 8.12972158864687 14.085664236527585 4.699741109495599 0 0 0
224 1 12.906355016894597 15.684073457942276 3.156100214399612 0 -1 0
30 1 11.305098277552535 14.10047986560524 4.713129415731859 0 0 0
197 1 14.490976756236819 14.101988213298123 4.719357734913195 0 -1 0
69 1 9.55051799682499 0.0677762041484834 6.102345563877718 0 0 0
70 1 14.769373316966588 14.13772526288399 7.79644399570937 0 -1 0
91 1 11.163955210668341 1.4447818836606539 7.869934226928369 0 0 0
239 1 14.675436282774731 1.5230253269655551 7.697641077562444 0 0 0
59 1 9.75562740104187 3.123228963706267 6.2071747955969325 0 0 0
92 1 8.111767623291035 4.657744595631638 7.845587776038095 0 0 0
60 1 12.909141372167708 3.0335387919873744 6.31635576909912 0 0 0
74 1 11.297011999723924 4.645063013772906 7.856209297417018 0 0 0
206 1 14.545965933821664 4.666955693016249 7.83612054035756 0 0 0
175 1 8.128643987687209 7.781751047929709 7.863536948177995 0 0 0
181 1 9.724206953751633 6.21891029164145 6.2624122909124695 0 0 0
43 1 12.911896980684444 6.209421310898383 6.2822037596400975 0 0 0
189 1 11.302080848714834 7.768973978442631 7.855313242668055 0 0 0
73 1 14.525688484355033 7.764261768431403 7.851387152026448 0 0 0
118 1 9.720520671925058 9.350533854985365 6.26171125747678 0 0 0
194 1 12.908807740264837 9.373728437156718 6.297733555648997 0 0 0
193 1 8.11888013998735 10.926174857538541 7.865507346838886 0 0 0
184 1 9.657319647862879 12.32070704381809 6.130448746201031 0 0 0
214 1 11.273646313876618 10.952686721980719 7.8493278016981085 0 0 0
163 1 12.891349665691674 12.565249006517668 6.394752080470066 0 0 0
229 1 12.892926713693193 6.232359317453404 0.012489943027679256 0 0 1
84 1 13.091119499315647 0.6594211775058478 9.49253124930731 0 0 0
53 1 9.68894579966959 3.0634768465239315 9.416041821782002 0 -1 0
94 1 12.958150283767704 3.2849789059845476 9.433534974087323 0 0 0
99 1 9.722660305975856 6.208287980079927 9.455589120161425 0 0 0
100 1 12.92308563790685 6.213131241810468 9.463544496793752 0 0 0
119 1 9.718634415383354 9.345587957182385 9.440114371954957 0 0 0
205 1 12.919243750160689 9.144452151188814 9.476053218002871 0 0 0
223 1 9.812236314761968 12.567765784143004 9.472684763914359 0 0 0
213 1 13.010501359489801 11.737074041382265 9.65651986673878 0 0 0
82 1 9.014308360480621 15.799516510581478 8.836064917890106 0 -1 0
120 1 10.837103092566462 15.476225582002733 10.415449613862632 0 -1 0
16 1 12.63843108926576 14.083031526068565 9.150182776350832 0 0 0
107 1 8.223798447232898 1.4228245282210654 11.01427685405682 0 0 0
23 1 11.400717140446236 1.9833018786721444 11.115361853760692 0 0 0
188 1 14.652302734112121 1.5674573064576374 11.2726622785136 0 0 0
81 1 8.14583607710506 4.614265946343624 11.04327939180507 0 0 0
106 1 9.669548274145454 3.080424653496194 12.702469231140855 0 0 0
93 1 11.317088941993186 4.695454201808469 11.07384812906691 0 0 0
95 1 13.019358865423541 3.134086627535516 12.746360112969866 0 0 0
96 1 14.53928297825988 4.659740418569145 11.088648542973063 -1 0 0
124 1 9.720267891489785 6.201308196629921 12.662292876000903 0 0 0
129 1 8.137518776553076 7.77595006468358 11.048745637637161 0 0 0
183 1 12.932053916672958 6.218877783361177 12.668635316952155 0 0 1
204 1 11.302426265504206 7.752370779763444 11.083769776632609 0 0 0
89 1 14.543543358383978 7.752813998722173 11.091212309435468 0 0 0
237 1 9.665491373480103 9.285692245097266 12.71819754598519 0 0 0
230 1 12.962724105073685 9.337596754041385 12.677340779722474 0 0 0
211 1 8.132225482847847 10.926635223801663 11.035298667917289 0 0 0
247 1 9.526862796742918 12.441944908409276 12.739451376910639 0 0 0
212 1 11.203382708164781 10.700055184003645 11.170586399882884 0 0 0
240 1 13.276381823409062 12.30664204043087 12.833552153570482 0 0 0
215 1 14.765577772882438 10.802860941001558 11.223017990626197 0 0 0
248 1 8.189443205084437 14.119562671545825 10.99701709848866 0 0 0
7 1 9.725233751656136 15.662482442804217 12.75476898256956 0 -1 -1
249 1 11.506631785860497 13.320860842549843 11.406321610277136 0 0 0
225 1 12.882257514058828 15.686896359286978 12.543679421881933 0 0 0
108 1 14.510000625398787 14.09733913965218 11.056496215696605 0 0 0
219 1 8.135552886629002 1.4494446095712725 14.221613505174398 0 0 0
85 1 11.345513928705591 1.456327438563935 14.202329841243937 0 0 0
2 1 14.523502973054716 1.448298409422081 14.23777310857116 0 0 0
153 1 8.133572302166462 4.634876272157758 14.241375227613476 0 0 0
117 1 11.3280417984128 4.635041287114885 14.236226477237278 0 0 0
21 1 14.537844154508678 4.663737503232399 14.281215810469183 -1 0 -1
202 1 8.130854532536029 7.748851937938382 14.25659385857349 0 0 0
173 1 11.339839094278108 7.791506861671449 14.227789491186337 0 0 0
226 1 14.51147816051342 7.784880670187583 14.286725364356272 -1 0 0
236 1 8.11011173376115 10.877675516626834 14.286105149309005 0 0 0
238 1 11.353413183898802 10.9289788111018 14.23557312808272 0 0 0
141 1 14.600061708804613 10.789159923848798 14.400281840248136 -1 0 -1
246 1 8.116036409709446 14.106612472938048 14.247763375518199 0 0 0
115 1 11.365257111655158 14.047601564745088 14.20710140719029 0 0 0
250 1 12.91315947150054 15.677378247671712 15.782950837110555 0 0 0
101 1 14.53703854186016 14.120942468929913 14.264528692951014 -1 -1 0
147 1 9.747854529259211 12.505991368583206 15.803888302861722 0 0 -1
146 1 9.739280441035852 3.0341765697108443 15.796159915642226 0 1 -1
28 1 9.755935810048141 6.217027722352111 15.824753549188573 0 0 -1
109 1 9.747830099153495 15.679569250036229 15.796201848250597 0 -1 0
228 1 12.922248968853056 3.0405343026201677 15.809658734050961 0 0 0

Velocities

11 0 0 0
4 0 0 0
116 0 0 0
220 0 0 0
14 0 0 0
9 0 0 0
174 0 0 0
126 0 0 0
132 0 0 0
78 0 0 0
182 0 0 0
131 0 0 0
97 0 0 0
196 0 0 0
46 0 0 0
49 0 0 0
134 0 0 0
80 0 0 0
34 0 0 0
142 0 0 0
83 0 0 0
52 0 0 0
58 0 0 0
37 0 0 0
38 0 0 0
39 0 0 0
185 0 0 0
40 0 0 0
180 0 0 0
151 0 0 0
47 0 0 0
152 0 0 0
48 0 0 0
156 0 0 0
22 0 0 0
160 0 0 0
166 0 0 0
176 0 0 0
170 0 0 0
232 0 0 0
45 0 0 0
26 0 0 0
167 0 0 0
169 0 0 0
192 0 0 0
159 0 0 0
191 0 0 0
227 0 0 0
71 0 0 0
56 0 0 0
72 0 0 0
57 0 0 0
41 0 0 0
186 0 0 0
75 0 0 0
178 0 0 0
62 0 0 0
63 0 0 0
61 0 0 0
177 0 0 0
210 0 0 0
12 0 0 0
51 0 0 0
86 0 0 0
35 0 0 0
90 0 0 0
222 0 0 0
187 0 0 0
98 0 0 0
190 0 0 0
208 0 0 0
179 0 0 0
216 0 0 0
218 0 0 0
221 0 0 0
24 0 0 0
76 0 0 0
68 0 0 0
77 0 0 0
67 0 0 0
158 0 0 0
87 0 0 0
111 0 0 0
66 0 0 0
104 0 0 0
140 0 0 0
125 0 0 0
201 0 0 0
123 0 0 0
157 0 0 0
121 0 0 0
231 0 0 0
233 0 0 0
25 0 0 0
243 0 0 0
241 0 0 0
207 0 0 0
209 0 0 0
245 0 0 0
168 0 0 0
217 0 0 0
79 0 0 0
105 0 0 0
244 0 0 0
102 0 0 0
5 0 0 0
113 0 0 0
114 0 0 0
15 0 0 0
122 0 0 0
235 0 0 0
143 0 0 0
203 0 0 0
242 0 0 0
144 0 0 0
27 0 0 0
3 0 0 0
145 0 0 0
13 0 0 0
133 0 0 0
234 0 0 0
110 0 0 0
1 0 0 0
135 0 0 0
127 0 0 0
6 0 0 0
8 0 0 0
10 0 0 0
17 0 0 0
18 0 0 0
31 0 0 0
20 0 0 0
128 0 0 0
198 0 0 0
195 0 0 0
130 0 0 0
29 0 0 0
139 0 0 0
136 0 0 0
199 0 0 0
137 0 0 0
149 0 0 0
112 0 0 0
33 0 0 0
148 0 0 0
150 0 0 0
54 0 0 0
44 0 0 0
103 0 0 0
42 0 0 0
64 0 0 0
200 0 0 0
36 0 0 0
65 0 0 0
88 0 0 0
161 0 0 0
50 0 0 0
154 0 0 0
155 0 0 0
55 0 0 0
164 0 0 0
19 0 0 0
172 0 0 0
162 0 0 0
138 0 0 0
165 0 0 0
32 0 0 0
171 0 0 0
224 0 0 0
30 0 0 0
197 0 0 0
69 0 0 0
70 0 0 0
91 0 0 0
239 0 0 0
59 0 0 0
92 0 0 0
60 0 0 0
74 0 0 0
206 0 0 0
175 0 0 0
181 0 0 0
43 0 0 0
189 0 0 0
73 0 0 0
118 0 0 0
194 0 0 0
193 0 0 0
184 0 0 0
214 0 0 0
163 0 0 0
229 0 0 0
84 0 0 0
53 0 0 0
94 0 0 0
99 0 0 0
100 0 0 0
119 0 0 0
205 0 0 0
223 0 0 0
213 0 0 0
82 0 0 0
120 0 0 0
16 0 0 0
107 0 0 0
23 0 0 0
188 0 0 0
81 0 0 0
106 0 0 0
93 0 0 0
95 0 0 0
96 0 0 0
124 0 0 0
129 0 0 0
183 0 0 0
204 0 0 0
89 0 0 0
237 0 0 0
230 0 0 0
211 0 0 0
247 0 0 0
212 0 0 0
240 0 0 0
215 0 0 0
248 0 0 0
7 0 0 0
249 0 0 0
225 0 0 0
108 0 0 0
219 0 0 0
85 0 0 0
2 0 0 0
153 0 0 0
117 0 0 0
21 0 0 0
202 0 0 0
173 0 0 0
226 0 0 0
236 0 0 0
238 0 0 0
141 0 0 0
246 0 0 0
115 0 0 0
250 0 0 0
101 0 0 0
147 0 0 0
146 0 0 0
28 0 0 0
109 0 0 0
228 0 0 0
