LAMMPS data file via write_data, version 22 Jul 2025, timestep = 38138, units = metal

250 atoms
1 atom types

-0.021433942741463066 15.84741194274152 xlo xhi
0 15.825978000000001 ylo yhi
0 15.825978000000001 zlo zhi

Masses

1 183.841

Atoms # atomic

11 1 1.7103264477122755 1.4045528821971016 1.4748042650851745 0 0 0
4 1 4.881627777964897 1.4067257797907882 1.4789888981597648 0 0 0
180 1 1.717131151375932 4.564763173193778 1.467790548956342 0 0 0
14 1 4.880299857684331 4.569657507541368 1.4724733874097615 0 0 0
126 1 1.7130101167842977 7.733230287077035 1.4679609952815158 0 0 0
132 1 4.883511635359126 7.7354672096216985 1.471607152743278 0 0 0
207 1 1.7088836164952999 10.898453053420052 1.4643065699288405 0 0 0
134 1 4.8853964253769036 10.901925837237712 1.472126778499145 0 0 0
46 1 1.712341488593803 14.068476213957139 1.4725786339817868 -1 0 0
83 1 4.8860667053771705 14.06944081997615 1.47734043436821 0 0 0
52 1 1.7111679367926256 1.4064414107113108 4.6463458978018135 0 0 0
185 1 4.883936726536488 1.4070662163020724 4.647039154201283 0 1 0
37 1 1.7134853923621043 4.563844740344477 4.643683767687863 0 0 0
38 1 0.12409812014999082 2.982688278642598 3.054854137321595 0 0 0
116 1 3.296457488351885 2.9866304623905693 3.056950790162197 0 0 0
152 1 4.884381635854301 4.568505959335411 4.645933502790533 0 0 0
40 1 6.463819547036102 2.985795392361448 3.0604554377712763 0 0 0
157 1 0.1711858240813275 6.1434975412629065 3.0498107459268806 1 0 0
151 1 1.7756950681191512 7.7423666039191685 4.652673962169323 1 0 0
47 1 3.3082261757928806 6.148400182574339 3.0557960437997425 0 0 0
212 1 4.89410007496368 7.734164660322511 4.6428364749371775 0 0 0
48 1 6.466009418491388 6.149719784221812 3.055284928690071 0 0 0
156 1 0.10055810423889382 9.29289474915108 3.0204012916255882 0 0 0
22 1 3.3036310353159246 9.317847566526357 3.0509620390626457 0 0 0
160 1 6.471423627750612 9.317497327380533 3.0557363379661813 0 0 0
166 1 0.1250926337271958 12.489455025545869 3.0510816372274125 0 0 0
176 1 1.6891118089274553 10.877773556150807 4.588347350558059 0 0 0
170 1 4.89024621274806 10.90201508702022 4.635799113070841 0 0 0
232 1 3.297577921175474 12.484239267591656 3.047415886393733 0 0 0
45 1 6.472064085196965 12.484149844413013 3.057766730000935 0 0 0
26 1 0.1253126736258202 15.65096174033737 3.0575121579810665 0 -1 0
167 1 1.7132458521731164 14.075113916094272 4.637513971312849 0 0 0
169 1 3.2974512930105275 15.651974562819966 3.059956711839865 0 0 0
192 1 4.887958863108953 14.073989766542482 4.633559329629768 0 0 0
159 1 6.471195246310455 15.650319588304502 3.0617963977738865 0 -1 0
51 1 1.7380179067019632 1.4327089267497397 7.831680421394794 0 0 0
227 1 4.8701429005568455 1.4342814492311433 7.825756371976579 0 0 0
70 1 1.7288627701861254 4.536707238699655 7.822545545797365 0 -1 0
71 1 0.13080368484979588 2.9831694576282164 6.22768182366311 0 0 0
57 1 3.298733144915867 2.9867467279785114 6.205778503497402 0 0 0
72 1 4.866616884437539 4.546806243356262 7.8251069698913005 0 0 0
41 1 6.460439611437124 2.9890983911487576 6.232781640841883 0 0 0
75 1 0.10932220851846694 6.105325924124634 6.206203276234402 1 0 0
186 1 1.6883721184193061 7.674337794747405 7.781030860999085 0 0 0
62 1 3.30411843277268 6.134031634970395 6.2333673674372 0 0 0
210 1 4.88995858527119 7.723360172470213 7.804973493840134 0 0 0
63 1 6.464049974543599 6.143324926945286 6.229346868495246 0 0 0
61 1 0.9038649509228794 10.087327304596311 6.996569624534388 0 0 0
177 1 3.349345381578403 9.339816977558495 6.247845438617843 0 0 0
19 1 6.47869220531758 9.32027146077189 6.226226694405326 0 0 0
174 1 0.14957021052007474 12.532996723700231 6.246178282062911 1 0 0
182 1 3.295757939820988 12.484058088109117 6.165387068756227 0 0 0
121 1 4.917396139028408 10.928196026278968 7.831755887164696 0 0 0
9 1 6.476279437151119 12.489133474716938 6.223456245177059 0 -1 0
78 1 0.13724784160178546 15.666628764437037 6.23400150059165 1 -1 0
97 1 1.7376839324444724 14.108810327198961 7.830229738185725 0 0 0
80 1 4.898256161167667 14.089275729222535 7.770695512056769 0 -1 0
196 1 3.3010383663449137 15.667994839150534 6.2340174339015535 0 0 0
34 1 6.470344609355746 15.664801065078866 6.225550384096221 0 -1 0
86 1 0.10595974093523162 2.986595133647838 9.386710077409743 0 0 0
90 1 6.496677202092668 2.9959453927206545 9.385242398570098 0 0 0
222 1 0.1353658752630164 6.133804960008094 9.392247940499221 0 0 0
178 1 3.2972531334351842 6.15575890932658 9.385357470830106 0 0 0
98 1 6.462125337644526 6.141731115586905 9.385064817442018 0 0 0
203 1 0.14885810725254375 9.337683965893376 9.436675596611188 1 0 0
248 1 3.292744815627122 9.25924849782958 9.38085155807635 0 0 0
209 1 6.475897844277776 9.315072090607558 9.38803221373931 0 0 0
216 1 0.06506596971201419 12.482082485604778 9.3820617275368 0 0 0
191 1 2.288628590551669 11.483666470283568 8.383538835210379 0 0 0
218 1 3.7041987435583343 12.881421102262948 9.790536350775055 0 0 0
220 1 6.492028670847081 12.515911715729764 9.416162328162104 0 0 0
24 1 0.13609849854095296 15.667114841265045 9.388418456454907 0 -1 -1
76 1 3.3297252288528525 15.65544808302906 9.418125908105504 0 -1 0
68 1 6.48034618720416 15.681169966205236 9.378493574994291 0 -1 0
77 1 1.731872887360713 1.4335624055724052 10.951924689172516 0 0 0
67 1 4.884586885959336 1.4565126164507036 10.966879073466966 0 0 0
187 1 1.731468707138491 4.546503050685176 10.948938780664376 0 0 0
87 1 0.13582416215752308 2.9888928683778344 12.539363544920759 0 0 0
102 1 3.2972233217575266 2.9954605316452496 12.572445612798596 0 0 0
140 1 4.867019320126827 4.551645202473451 10.949287205023184 0 0 0
168 1 6.47005190994651 3.0082572460473442 12.54891999116474 0 0 0
125 1 0.13229630693254363 6.142954777207701 12.543369165218229 1 0 0
201 1 1.7121560770352848 7.722762635915105 10.97366991260259 0 0 0
123 1 4.88793376289243 7.718101316074303 10.971653042794177 0 0 0
113 1 3.296981504165639 6.140968843696067 12.54061642498414 0 0 0
129 1 6.4635646273877105 6.147007276381859 12.542714462619196 0 0 0
231 1 0.1286522348796925 9.319183340793998 12.557985401575639 0 0 0
233 1 3.2998543742773805 9.314486806976623 12.555331577020459 0 0 0
25 1 6.477119398251212 9.310958791428845 12.556553112820229 0 0 -1
190 1 1.7368173868426433 10.925665603251144 11.001835376572915 1 0 0
208 1 0.12583069425305143 12.488337741436153 12.555354792441591 0 0 0
200 1 4.8987034351531324 10.85748333715144 10.98261965810818 0 0 0
143 1 3.3268553115914252 12.514898966118686 12.569060488276746 0 0 -1
245 1 6.485781653426134 12.480097399171727 12.564492511399378 0 0 0
217 1 1.6758893710553842 14.085831664343388 10.978580733126666 0 0 0
223 1 0.1286012806285676 15.663986022782938 12.548634996124527 1 -1 0
79 1 3.2886656991404286 15.679818456198197 12.556392111171638 0 -1 0
105 1 5.125940441680964 14.321202585501295 11.208772338190839 0 -1 0
244 1 6.58441081455586 15.77904118195769 12.662534976498447 0 0 0
111 1 1.7092198603457183 1.410478131907572 14.131653906011396 0 0 0
5 1 4.880645952152814 1.4156795117854342 14.137260716745734 0 0 -1
110 1 1.7099168930857946 4.571532656873024 14.126790262717657 1 0 0
2 1 0.12838502657191217 2.9834001002097588 15.709827261441935 1 0 0
114 1 4.881419000474105 4.5755220075353495 14.128566391039202 0 0 0
13 1 3.2952914199389256 2.98927162836307 15.718473685085456 0 0 -1
15 1 6.45692846668697 2.9872175017164198 15.713644874325169 0 0 -1
122 1 1.7115735612359622 7.732801951702108 14.131469446110607 0 0 0
12 1 0.12313139718806967 6.148279555522912 15.709445417877044 0 0 -1
235 1 4.881939013150539 7.734232618239473 14.131659298580574 0 0 0
127 1 3.2960960191137367 6.152631780005517 15.712804889517008 0 0 -1
135 1 6.4640218517716095 6.154211594341393 15.712165437412638 0 0 -1
131 1 0.12009590183845428 9.312393419639005 15.711116634700234 0 0 -1
133 1 3.2978807411935516 9.318654266487371 15.714519735504709 0 0 -1
158 1 6.469356959254609 9.31873607355747 15.7160017061165 0 0 -1
49 1 1.7170170962327234 10.906327459505963 14.135918404094184 0 0 -1
150 1 0.12642255051084444 12.48457676732822 15.7146320148137 1 0 -1
234 1 4.888477546697277 10.9041120625007 14.137602613725514 0 0 0
142 1 3.302415128522424 12.489265633644193 15.717471937033784 0 0 -1
145 1 6.47433728290281 12.486105145059271 15.721255290708035 0 0 -1
1 1 0.12656741714451517 15.64889515965166 15.715675011870335 0 -1 -1
242 1 1.715769977742309 14.073758492613544 14.135759294419273 0 0 0
27 1 4.903122450261558 14.09010915080566 14.150720152018936 0 0 0
3 1 3.298762393024983 15.65451697449086 15.720630511613871 0 -1 -1
144 1 6.4783656171156485 15.657919085142193 15.735472558907654 0 0 -1
6 1 8.055718926123939 1.4041591235966293 1.4836437746078655 0 0 0
8 1 11.222887872418136 1.38466334330858 1.4633975536106065 0 0 0
10 1 14.406410588580398 1.3996306538490866 1.4694700441514783 0 0 0
17 1 8.033787155915286 4.559390945634493 1.4624251228016103 0 0 0
18 1 11.09245833735209 4.432222316984651 1.3349151471355738 0 0 0
20 1 14.421816554915722 4.553061336658428 1.4562608985302763 0 0 0
128 1 8.04996343026132 7.733657379714768 1.4683612243055693 0 0 0
229 1 11.213336282181077 7.745324161720815 1.4544045014899203 0 0 1
130 1 14.377761371269132 7.7054203289165475 1.4502008565600124 0 0 0
136 1 8.05639226450844 10.900444599000117 1.473683623350998 0 0 0
137 1 11.225586431104164 10.906778819290688 1.4661003329435356 0 0 0
164 1 14.405116462715512 10.901847901661242 1.4669816037495838 0 0 0
112 1 8.059041548262417 14.064279865879872 1.4784806067823641 0 0 0
224 1 11.232112740904833 14.062784087457505 1.4726156063212463 0 -1 0
101 1 14.408131007544116 14.066596907996734 1.472034200859249 -1 -1 1
54 1 8.054720165662584 1.4052429594509976 4.642998858316059 0 0 0
44 1 11.22895067161415 1.399591783594296 4.63762856799944 0 0 0
56 1 14.404868384070848 1.4048226199483758 4.636550873846892 -1 0 0
42 1 9.633204749796699 2.976846946106292 3.0584482502841057 0 0 0
64 1 8.04887940265478 4.564811388695408 4.639393946649896 0 0 0
35 1 11.214545450673002 4.5524632827137195 4.649454660354568 0 0 0
36 1 12.798734333332268 2.968214730596337 3.0342018497163763 -1 0 0
65 1 14.380422035767898 4.547823053676816 4.611740694967276 0 0 0
88 1 9.620742009823354 6.129736180951945 3.0335128079630675 0 0 0
161 1 8.052689976370518 7.72868517737153 4.6361185675669025 0 0 0
243 1 12.550136522572863 5.8808851198721035 2.783849584780513 0 0 0
181 1 11.208141866908734 7.704650052403769 4.608130425523774 0 0 0
50 1 13.973091655809997 7.303824486328974 4.205337510338899 0 0 0
55 1 9.638147546044383 9.315174808758409 3.051540157989546 0 0 0
154 1 12.807161775361322 9.361580633359361 3.04323004652502 0 0 0
66 1 9.64351602606107 12.482664754798193 3.0575372051459437 0 0 0
172 1 8.057914910734931 10.900506396932533 4.63972000499467 0 0 0
162 1 11.22642047837125 10.901590878588422 4.636709151977388 0 0 0
138 1 12.817333043811937 12.493429572280295 3.0534104680814034 0 0 0
165 1 14.415739563510854 10.957146397521779 4.647629030382564 0 0 0
32 1 9.64315460422122 15.643609860056545 3.0588340299723673 0 -1 0
171 1 8.057545579431002 14.06786096049248 4.642985225340304 0 0 0
103 1 12.818426625036672 15.645852155514744 3.0544617410644683 -1 -2 0
30 1 11.23171059594201 14.066406999965603 4.639826532600268 0 0 0
197 1 14.410619522451332 14.078503067893697 4.642444561408575 0 -1 0
31 1 8.058146655785098 1.4108826390141986 7.801146335667117 0 0 0
91 1 11.234661285294669 1.4047411407578585 7.802065149437495 0 0 0
239 1 14.413472570416566 1.4062731403715742 7.802983577000339 0 0 0
59 1 9.639270341757708 2.983652884346675 6.224017291329912 0 0 0
149 1 8.052479009039349 4.572038546297544 7.801922932993603 0 0 -1
60 1 12.818153459595777 2.9826918060586944 6.219538890575334 0 0 0
74 1 11.226862055902677 4.564568680325898 7.8084364445563805 0 0 0
206 1 14.41044839017264 4.563524499185584 7.805182934702455 0 0 0
179 1 8.056505052375536 7.733162941959803 7.803923408305466 0 0 0
175 1 9.63812253063066 6.1479682168856336 6.218802801799953 0 0 0
92 1 12.811086448288231 6.141164919896632 6.265156647727783 0 0 0
189 1 11.226764388736935 7.732621748224327 7.804486035792208 0 0 0
43 1 14.417161836159691 7.739282488530798 7.866808068268049 0 0 0
118 1 9.639808853263368 9.312283344131147 6.216177705068542 0 0 0
194 1 12.783832789353147 9.291105441045032 6.195263348549657 0 0 0
155 1 15.38387823714467 8.700504362064603 5.612349398475906 0 0 0
184 1 9.64412222706577 12.484557764249532 6.222732691362699 0 0 0
193 1 8.061342592737333 10.90676073746471 7.809694768071384 0 0 0
163 1 12.815045715004537 12.488698876806927 6.2213639467945105 0 0 0
214 1 11.223708055164078 10.897686824066106 7.800349089230869 0 0 0
195 1 14.357715170382182 10.875204662621305 7.7790596015811735 0 0 0
69 1 9.645479087088237 15.649063876811073 6.222564882467213 0 -1 0
198 1 8.06230950773812 14.074362875397615 7.808230164790109 0 0 0
199 1 11.232513400720041 14.068366264226576 7.8041545878182275 0 0 0
33 1 12.821297859546362 15.650905750631477 6.221321098967614 0 -1 0
16 1 14.40491144363053 14.074644768320807 7.804782339875467 0 0 0
53 1 9.649047105655235 2.9898232255432324 9.383350804325481 0 -1 0
94 1 12.819872352886707 2.9866932796392014 9.384489222952988 0 0 0
99 1 9.642153311134688 6.152774558546634 9.384180466391939 0 0 0
100 1 12.818357039740228 6.147596266409729 9.39594607330687 0 0 0
119 1 9.643887697186281 9.318537472829297 9.385884481322575 0 0 0
73 1 12.81418086316213 9.317238618369732 9.390943232173106 0 0 0
221 1 9.647836313472093 12.489128945238548 9.390424117376046 0 0 0
213 1 12.810601509431319 12.48315097847606 9.384724888859678 0 0 0
39 1 9.651532566530458 15.65504402216863 9.386699941617655 0 0 0
84 1 12.823700639800078 15.651839261229865 9.385210444208267 0 -1 0
107 1 8.064705803654793 1.416714513468773 10.964807439664929 0 0 0
120 1 11.239248577844824 1.407118560809502 10.965873927820578 0 0 0
188 1 14.414281935814413 1.4068174389809192 10.967823399683466 0 0 0
81 1 8.05452161660845 4.576140802484115 10.965549595271094 0 0 0
106 1 9.643929730551058 2.9880695884444024 12.53755206019405 0 0 0
23 1 12.824317843304605 2.986226561894261 12.544355623265151 0 0 0
93 1 11.232031319143054 4.569946997486359 10.964970416244256 0 0 0
96 1 14.412889221576577 4.5685484398100975 10.968591741331762 -1 0 0
104 1 8.05692961094145 7.7345310077070115 10.965843284482402 0 0 0
124 1 9.641671319284711 6.15440317108208 12.544346964718734 0 0 0
183 1 12.818894070074135 6.149695932473685 12.54668941991302 0 0 1
204 1 11.231039384658052 7.735249769281541 10.967530742277551 0 0 0
89 1 14.409697362572304 7.733348470402342 10.977436652826407 0 0 0
237 1 9.645506591836375 9.318499758674694 12.549310136589542 0 0 0
230 1 12.81926158461905 9.316954039578402 12.55132252454742 0 0 0
211 1 8.063267678986936 10.903984122399386 10.972497411572917 0 0 0
247 1 9.651360979941629 12.485833485200454 12.554198590087266 0 0 0
205 1 11.23176364225351 10.901457103952119 10.969281614651871 0 0 0
240 1 12.821400224024515 12.483740956658941 12.551730245130859 0 0 0
215 1 14.402694708782185 10.900905418175302 10.973853935347318 0 0 0
82 1 8.079409150386919 14.090480129445814 10.98749071290263 0 -1 0
7 1 9.66689520275412 15.658560294836105 12.558619141775546 0 -1 -1
58 1 12.8259648650593 15.65053586082126 12.551158347941147 0 0 0
249 1 11.237795848137486 14.069388384333653 10.969952644779488 0 0 0
108 1 14.400333997487232 14.073349771666038 10.971420226856186 0 0 0
219 1 8.087049352184899 1.4369845442049822 14.162237782056037 0 0 0
85 1 11.24398330276625 1.4050067368220915 14.13210737981041 0 0 0
228 1 14.411385344532032 1.4054761335282628 14.130115362435955 0 0 0
146 1 9.601062184382808 2.9440043034298196 15.671907915197712 0 1 -1
153 1 8.053912997316907 4.57894988918852 14.129282267701631 0 0 0
225 1 12.822788682487843 2.97818543397411 15.706021900893186 0 1 0
117 1 11.222460327105324 4.559993733858596 14.11154665744575 0 0 0
95 1 14.407670302627087 4.565058020675227 14.125013734910377 0 0 0
28 1 9.63252324676635 6.154266977360275 15.704012400778325 0 0 -1
202 1 8.054029329595148 7.735088242671189 14.129310110069364 0 0 0
21 1 12.798086141513755 6.129751601156741 15.695007080668255 -1 0 -1
173 1 11.228099091428213 7.733354993306334 14.12629456097427 0 0 0
226 1 14.404124091816215 7.728301545072793 14.128759641120942 -1 0 0
29 1 9.639380252430806 9.319991666054264 15.710403156553767 0 0 0
139 1 12.815537019057022 9.31490119875701 15.70962109985677 0 0 -1
236 1 8.061053039539892 10.900336869512502 14.136152749843834 0 0 0
147 1 9.645611137891741 12.482613595948076 15.716434709633777 0 0 -1
238 1 11.233334177222355 10.900146631774145 14.132054438045865 0 0 0
148 1 12.821418202375588 12.482629889996142 15.714506164298847 0 0 -1
141 1 14.407616212318901 10.900055203501093 14.133316609404911 -1 0 -1
246 1 8.065124118395497 14.067248190378892 14.139674378210376 0 0 0
109 1 9.645417750939833 15.637347845350849 15.716131802320934 0 -1 0
250 1 12.822943497516102 15.643906374781803 15.714206152846106 0 0 0
115 1 11.238441686545318 14.06432319889756 14.134582695248026 0 0 0
241 1 14.41105202857924 14.06776085548726 14.132575689381481 0 0 0

Velocities

11 0 0 0
4 0 0 0
180 0 0 0
14 0 0 0
126 0 0 0
132 0 0 0
207 0 0 0
134 0 0 0
46 0 0 0
83 0 0 0
52 0 0 0
185 0 0 0
37 0 0 0
38 0 0 0
116 0 0 0
152 0 0 0
40 0 0 0
157 0 0 0
151 0 0 0
47 0 0 0
212 0 0 0
48 0 0 0
156 0 0 0
22 0 0 0
160 0 0 0
166 0 0 0
176 0 0 0
170 0 0 0
232 0 0 0
45 0 0 0
26 0 0 0
167 0 0 0
169 0 0 0
192 0 0 0
159 0 0 0
51 0 0 0
227 0 0 0
70 0 0 0
71 0 0 0
57 0 0 0
72 0 0 0
41 0 0 0
75 0 0 0
186 0 0 0
62 0 0 0
210 0 0 0
63 0 0 0
61 0 0 0
177 0 0 0
19 0 0 0
174 0 0 0
182 0 0 0
121 0 0 0
9 0 0 0
78 0 0 0
97 0 0 0
80 0 0 0
196 0 0 0
34 0 0 0
86 0 0 0
90 0 0 0
222 0 0 0
178 0 0 0
98 0 0 0
203 0 0 0
248 0 0 0
209 0 0 0
216 0 0 0
191 0 0 0
218 0 0 0
220 0 0 0
24 0 0 0
76 0 0 0
68 0 0 0
77 0 0 0
67 0 0 0
187 0 0 0
87 0 0 0
102 0 0 0
140 0 0 0
168 0 0 0
125 0 0 0
201 0 0 0
123 0 0 0
113 0 0 0
129 0 0 0
231 0 0 0
233 0 0 0
25 0 0 0
190 0 0 0
208 0 0 0
200 0 0 0
143 0 0 0
245 0 0 0
217 0 0 0
223 0 0 0
79 0 0 0
105 0 0 0
244 0 0 0
111 0 0 0
5 0 0 0
110 0 0 0
2 0 0 0
114 0 0 0
13 0 0 0
15 0 0 0
122 0 0 0
12 0 0 0
235 0 0 0
127 0 0 0
135 0 0 0
131 0 0 0
133 0 0 0
158 0 0 0
49 0 0 0
150 0 0 0
234 0 0 0
142 0 0 0
145 0 0 0
1 0 0 0
242 0 0 0
27 0 0 0
3 0 0 0
144 0 0 0
6 0 0 0
8 0 0 0
10 0 0 0
17 0 0 0
18 0 0 0
20 0 0 0
128 0 0 0
229 0 0 0
130 0 0 0
136 0 0 0
137 0 0 0
164 0 0 0
112 0 0 0
224 0 0 0
101 0 0 0
54 0 0 0
44 0 0 0
56 0 0 0
42 0 0 0
64 0 0 0
35 0 0 0
36 0 0 0
65 0 0 0
88 0 0 0
161 0 0 0
243 0 0 0
181 0 0 0
50 0 0 0
55 0 0 0
154 0 0 0
66 0 0 0
172 0 0 0
162 0 0 0
138 0 0 0
165 0 0 0
32 0 0 0
171 0 0 0
103 0 0 0
30 0 0 0
197 0 0 0
31 0 0 0
91 0 0 0
239 0 0 0
59 0 0 0
149 0 0 0
60 0 0 0
74 0 0 0
206 0 0 0
179 0 0 0
175 0 0 0
92 0 0 0
189 0 0 0
43 0 0 0
118 0 0 0
194 0 0 0
155 0 0 0
184 0 0 0
193 0 0 0
163 0 0 0
214 0 0 0
195 0 0 0
69 0 0 0
198 0 0 0
199 0 0 0
33 0 0 0
16 0 0 0
53 0 0 0
94 0 0 0
99 0 0 0
100 0 0 0
119 0 0 0
73 0 0 0
221 0 0 0
213 0 0 0
39 0 0 0
84 0 0 0
107 0 0 0
120 0 0 0
188 0 0 0
81 0 0 0
106 0 0 0
23 0 0 0
93 0 0 0
96 0 0 0
104 0 0 0
124 0 0 0
183 0 0 0
204 0 0 0
89 0 0 0
237 0 0 0
230 0 0 0
211 0 0 0
247 0 0 0
205 0 0 0
240 0 0 0
215 0 0 0
82 0 0 0
7 0 0 0
58 0 0 0
249 0 0 0
108 0 0 0
219 0 0 0
85 0 0 0
228 0 0 0
146 0 0 0
153 0 0 0
225 0 0 0
117 0 0 0
95 0 0 0
28 0 0 0
202 0 0 0
21 0 0 0
173 0 0 0
226 0 0 0
29 0 0 0
139 0 0 0
236 0 0 0
147 0 0 0
238 0 0 0
148 0 0 0
141 0 0 0
246 0 0 0
109 0 0 0
250 0 0 0
115 0 0 0
241 0 0 0
