LAMMPS data file via write_data, version 22 Jul 2025, timestep = 10695, units = metal

250 atoms
1 atom types

-0.02033168166634973 15.84630968166638 xlo xhi
0 15.825978000000001 ylo yhi
0 15.825978000000001 zlo zhi

Masses

1 183.841

Atoms # atomic

2 1 1.6823333219616294 1.608490946902643 1.5456380754712231 0 0 0
4 1 4.836802881471432 1.6276916153301506 1.529004741307414 0 0 0
12 1 1.6646606839802245 4.790797576204795 1.5296911196395881 0 0 0
14 1 4.831924982882766 4.793787898244882 1.52756234934144 0 0 0
132 1 4.831241757720381 7.95697672579004 1.5240875432550278 0 0 0
126 1 1.6601990881350561 7.955811940658683 1.5234538723955715 0 0 0
38 1 0.08871403725273858 3.2187581623212083 3.1262996609957225 0 0 0
46 1 1.6601828098221871 11.116552083137645 1.5215301061843953 -1 0 0
134 1 4.8316152535033146 11.122550065451458 1.5190805711732323 0 0 0
142 1 1.6684729435985324 14.279391707519832 1.5222061265701206 0 0 0
144 1 4.83759611616505 14.287820202616631 1.5219282118374267 0 0 0
27 1 1.6681387329952346 1.6312398066302725 4.698870334862701 0 0 0
26 1 0.18977987680111189 15.753239375302343 3.2259834507828704 0 -1 0
28 1 3.2692539483796232 0.040276098377736345 3.1179700400532857 0 0 0
58 1 4.8458650363671145 1.641771004578693 4.701080118787022 0 0 0
159 1 6.4229764084256 0.04883629410697215 3.110846537683685 0 0 0
37 1 1.6643104635412642 4.796484884291966 4.6959535875155725 0 0 0
56 1 0.07307598332049951 3.209620119543404 6.278154814282999 0 0 0
39 1 4.842317892148902 4.795304186999542 4.699914907550055 0 0 0
185 1 3.254064955962923 3.2119758389886974 3.1134672407573962 0 1 0
40 1 6.418744525625394 3.2135835872939116 3.1172748049009202 0 0 0
180 1 0.07703998542964374 6.380028593565277 3.11470239505915 0 0 0
47 1 3.2484665863088344 6.374660590487019 3.1089296386433296 0 0 0
48 1 6.4167394379972436 6.377054443590535 3.1149769218937005 0 0 0
151 1 1.6579014815089996 7.955767357128941 4.68896980120179 0 0 0
156 1 0.0714635955271439 9.536388611661005 3.1083494546285655 0 0 0
152 1 4.836064862450933 7.952339577901458 4.6944758632572094 0 0 0
22 1 3.245491083703113 9.535888683347892 3.1032500285794216 0 0 0
160 1 6.416469676720619 9.540654572533477 3.10468094095903 0 0 0
157 1 1.6569168975780584 11.111874111301235 4.6889105209849395 0 0 0
166 1 0.07866146679100704 12.685367685370927 3.1152179351943885 0 0 0
168 1 3.2454418272382286 12.70580208054774 3.094967203770276 0 0 0
170 1 4.821492654093025 11.13226276394684 4.668507332198702 0 0 0
45 1 6.4201770096325195 12.708322834626273 3.1013009610122175 0 0 0
167 1 1.6880774475431042 14.259271969929257 4.720109587288306 0 0 0
169 1 4.842518319580757 14.293097039417168 4.6891475612883635 0 0 0
35 1 1.6592949306502267 1.6322868838913767 7.859689577097346 0 0 0
51 1 0.07730517074641402 0.038739876652221075 6.292172284976352 0 0 0
67 1 4.839878895375834 1.643990058380771 7.853781518351404 0 0 0
52 1 3.246161463128709 0.060767374001412265 6.273073528424578 0 0 0
53 1 6.419376930588745 0.06048259303549325 6.270970752863182 0 0 0
71 1 1.65348019517319 4.794105199606104 7.854794762892027 0 0 0
57 1 3.2475787377571406 3.2105532812228605 6.269917137107697 0 0 0
72 1 4.790601890877819 4.779725288020045 7.838439281978906 0 0 0
41 1 6.439515347061547 3.240602001031085 6.298820517444624 0 0 0
61 1 0.06986756790680587 6.375912759030647 6.273325931987235 0 0 0
62 1 3.2480305571213712 6.378790226994156 6.269699234930484 0 0 0
63 1 6.43254500199167 6.359259628585737 6.288510261180219 0 0 0
186 1 1.6572231596933014 7.958078712295434 7.851570203366316 0 0 0
176 1 0.06497214688801316 9.53739472228472 6.271099614659262 0 0 0
177 1 3.2369922966551794 9.53404108310531 6.263790253333873 0 0 0
187 1 4.8445190304588985 7.942255618448637 7.856598835458857 0 0 0
178 1 6.39507821508009 9.561253154732615 6.2503923866546875 0 0 0
191 1 1.6349659884942307 11.133233270643068 7.843954681387614 0 0 0
174 1 0.05710359122213167 12.706687278895425 6.2714374017829115 1 0 0
182 1 3.2013581391346824 12.749900503767476 6.2285251545389535 0 0 0
192 1 4.691141177076227 11.258068391822668 7.716097978139436 0 0 0
183 1 6.418489030453933 12.718461439147058 6.2612863252925335 0 0 0
196 1 1.6550253531103096 14.29171932766221 7.8642603775677475 0 0 0
80 1 4.821568973667844 14.314321981846064 7.844121786356479 0 -1 0
76 1 0.0695749870217491 0.04616793976985754 9.440253482254047 0 0 0
78 1 3.243325983709995 0.05425152617297065 9.437784190236771 0 0 0
68 1 6.414298980500133 0.05682770407105788 9.434621789567467 0 0 0
86 1 0.07025587608230148 3.2113394416662007 9.438097749386337 0 0 0
66 1 3.2460221202582273 3.210367848406601 9.438577535698945 0 0 0
90 1 6.434695563076137 3.225998521718305 9.416358128199512 0 0 0
96 1 0.07257304018288917 6.376199107847915 9.435609596154276 0 0 0
97 1 3.250500935799877 6.374907344890011 9.430095314675453 0 0 0
98 1 6.450246049044095 6.228526659174242 9.365995269393327 0 0 0
206 1 0.06642344718849048 9.542130533237554 9.433747961805995 0 0 0
208 1 3.225317438496579 9.562063367087896 9.413314947751974 0 0 0
210 1 6.170748110638342 9.845422078001 9.17868893387824 0 0 0
216 1 0.06325853740386937 12.70837852325325 9.438783897805317 0 0 0
218 1 3.2324178220732707 12.718535079619194 9.437783936779471 0 0 0
220 1 6.394699852948549 12.72920042297748 9.413434321262073 0 0 0
77 1 1.6587127427030455 1.62981216039319 11.020933141439649 0 0 0
101 1 0.07588101554299742 0.039890381755683414 12.597453511396647 0 0 0
79 1 4.836254484316821 1.6364185024446871 11.012091378797374 0 0 0
103 1 3.2465469707735553 0.0488633994410853 12.601033316478302 0 0 0
219 1 6.417368454724775 0.046513112875941176 12.599118222515568 0 0 0
87 1 1.660066658193812 4.793995205991392 11.01753103409963 0 0 0
111 1 0.07535142010569748 3.208960727459205 12.601233897268354 0 0 0
89 1 4.8358262597905775 4.789491484531383 11.00639287449469 0 0 0
104 1 3.2450117106246745 3.2114573792250853 12.600782529278678 0 0 0
115 1 6.410255802492072 3.203206072594 12.597569764808263 0 0 0
121 1 0.07875335222426103 6.371137634148765 12.604559962939808 0 0 0
122 1 3.243384649520064 6.378398931892903 12.592641337484226 0 0 0
123 1 6.388719279260798 6.398832688700938 12.556468195020908 0 0 0
11 1 0.09215079870574858 3.18107816888486 15.79780473312468 0 0 -1
201 1 1.6572942919282927 7.960922944356021 11.012533784603246 0 0 0
202 1 4.813043494430185 7.974830584224054 10.974886671784324 0 0 0
233 1 3.2421193306002314 9.540911644289432 12.59524116347676 0 0 0
203 1 6.416752225503063 9.541990642534383 12.619207853855265 0 0 0
243 1 1.649482584487755 11.127056890518835 11.017306979815384 0 0 0
241 1 0.06851170997824994 12.705145297391432 12.602853079815844 0 0 0
207 1 3.238204395926158 12.711826071008847 12.60442979361514 0 0 0
209 1 4.805682692146968 11.144198081411975 11.03255592703248 0 0 0
245 1 6.413479262991333 12.710425648845568 12.596453002016231 0 0 0
217 1 1.6550235956677588 14.291478492358724 11.021000738365435 0 0 0
105 1 4.826371892888221 14.298168619757947 11.017011158132123 0 -1 0
102 1 1.6634469713109887 1.6241993779463955 14.1875321772525 0 0 0
1 1 0.08809645192970553 0.028528597233183368 15.761513518384335 0 0 -1
3 1 3.2522032015482227 0.041795455757816694 15.76878853198894 0 0 -1
5 1 4.83032692406646 1.627406275212985 14.184128474498985 0 0 -1
146 1 6.4186819335527145 0.04473051112738754 15.76727361410076 0 1 -1
113 1 1.6623307918731836 4.787538614867688 14.189312103649712 0 0 0
244 1 4.83266354633853 14.289459459193715 14.18255633505542 0 0 0
114 1 4.824251751101827 4.797102045409573 14.177550509933823 0 0 0
13 1 3.2483395748318227 3.207184769010303 15.771850439144156 0 0 -1
15 1 6.406555880894388 3.211602440062534 15.768049576074404 0 0 -1
21 1 0.07733739544246956 6.375147940132272 15.770257316330962 0 0 -1
127 1 3.2455583770588157 6.374825097881973 15.766024090869248 0 0 -1
23 1 6.410911922014721 6.376488731208592 15.770391079227227 0 0 -1
226 1 1.6599141336993524 7.956589380776946 14.18201096903804 0 0 0
131 1 0.0725033152898749 9.538819974321235 15.766449521737385 0 0 -1
133 1 3.245326196331394 9.537791784418605 15.76353931351847 0 0 -1
235 1 4.830352008935069 7.958335333316208 14.176766670814828 0 0 0
242 1 1.6616588655618505 14.285228150871504 14.18318785439045 0 0 0
232 1 1.657779696959599 11.120851474315089 14.18252867298972 0 0 0
49 1 0.0747937130893425 12.698981722624943 15.768675481776826 0 0 -1
234 1 4.828441652943309 11.12497727240139 14.184536790284023 0 0 0
143 1 3.246991600983706 12.703396505264601 15.764092262707656 0 0 -1
145 1 6.418890257561718 12.706330213099358 15.764182755779586 0 0 -1
158 1 6.415537305035594 9.54181574130909 15.771730957116686 0 0 -1
231 1 0.07199393805251543 9.540446667783652 12.600711785383611 0 0 0
175 1 7.5242892146122795 8.308746400016046 10.54767249731439 0 0 0
6 1 7.994307450037085 1.6270542596086786 1.531765833813729 0 0 0
8 1 11.134143807315537 1.6178379467728503 1.5397502986437317 0 0 0
10 1 14.594107362093075 1.3855204179142895 1.7701991976329357 0 0 0
16 1 7.998648099131273 4.7942105361467435 1.530635379909105 0 0 0
18 1 11.200497331817266 4.767905683745959 1.5621640446653369 0 0 0
20 1 14.363320466437166 4.82961370731887 1.5396081674542306 0 0 0
128 1 8.004920593752257 7.955547031674524 1.5360512771570687 0 0 0
129 1 11.175938978387713 7.961674041191479 1.5326638013560572 0 0 0
130 1 14.354701601665607 7.966896708698257 1.5303139088238051 0 0 0
70 1 14.345620705060725 14.288467183765789 7.859631345559323 0 -1 0
112 1 8.00568582018826 14.288600560413792 1.5235617579830705 0 0 0
137 1 11.17662740183868 11.123229400141268 1.5257702081281301 0 0 0
140 1 14.351769513833984 11.118274519003108 1.5268635631271148 0 0 0
19 1 13.161558608798629 2.8086832129432517 0.34384799793424053 0 0 0
148 1 11.178749594707911 14.284459625827173 1.5291153326119347 0 0 0
150 1 14.369653968625268 14.268227886102167 1.5453921377858302 0 0 0
54 1 8.00460109994766 1.6438028841912566 4.704724005851163 0 0 0
32 1 9.583187896188786 0.043319108334256645 3.116690560426351 0 0 0
224 1 12.751569894633018 0.032971230149913454 3.1257144787828075 0 0 0
44 1 11.169955794515628 1.6342310737508716 4.704891308669256 0 0 0
36 1 14.367394298473195 1.609080684298456 4.711509594399013 -1 0 0
42 1 9.588813257128319 3.210617600858694 3.1212537662931132 0 0 0
64 1 8.00363247528849 4.7960496723680635 4.6778668768056955 0 0 0
227 1 12.78872644717645 3.183666294808263 3.131552854728031 0 0 0
43 1 11.169393178965587 4.78928049018669 4.707772290981809 0 0 0
65 1 14.35185645034107 4.790928011219987 4.697603626125505 0 0 0
88 1 9.592673416368601 6.372887052736474 3.123776389784395 0 0 0
50 1 12.763088044455143 6.374635126848296 3.1171852781384186 0 0 0
55 1 9.588322037040669 9.53923195050652 3.110411557561103 0 0 0
153 1 7.998867686602712 7.953103706514523 4.699663661763481 0 0 0
154 1 11.166608004238801 7.94965756294042 4.700538032088329 0 0 0
164 1 12.760277229875546 9.537405973820768 3.1112261850177987 0 0 0
155 1 14.347233088384055 7.95589343439406 4.692374584925273 0 0 0
172 1 9.590858114299849 12.705882194262074 3.1058791354327746 0 0 0
161 1 8.002833343037285 11.126642713752023 4.682437480474793 0 0 0
138 1 12.763612920663446 12.699731497243187 3.1115367844748096 0 0 0
162 1 11.1749271079617 11.120723040476637 4.689819515837511 0 0 0
165 1 14.346591837812927 11.117225242093943 4.691650402572067 0 0 0
171 1 8.005503022910966 14.294394793252426 4.689522455503727 0 0 0
30 1 11.174468535423882 14.288103818962089 4.693952169982562 0 0 0
197 1 14.346019443001579 14.280976064536178 4.698735218461869 0 -1 0
34 1 9.59043854926695 0.05499978556021332 6.273445797833297 0 0 0
31 1 8.003654523783498 1.6137158405839511 7.853932532471599 0 0 0
69 1 11.165044226992997 1.6388781275302624 7.854347607152597 0 0 0
33 1 12.760868487575237 0.04473794918814028 6.280105658727011 0 0 0
59 1 9.5697412341509 3.2336144845640042 6.295615789651679 0 0 0
60 1 12.76080909498799 3.206868755495851 6.275148346627837 0 0 0
74 1 11.191587442522266 4.7951609097432035 7.846027354184666 0 0 0
75 1 14.35193958650117 4.792721015826365 7.853471089272635 0 0 0
181 1 9.562547378105053 6.362328709483824 6.293693186788268 0 0 0
73 1 12.756222662585763 6.37565744392146 6.272422330492152 0 0 0
118 1 9.588222355461262 9.539669214198758 6.2674678385282006 0 0 0
179 1 7.969096907402904 8.01536988110783 7.829723614783392 0 0 0
189 1 11.163264554246574 7.950402118064321 7.851247435808904 0 0 0
194 1 12.758535428890772 9.537150181320719 6.272957181048265 0 0 0
190 1 14.34754088931426 7.956374001171811 7.853340720380647 0 0 0
184 1 9.594923876207794 12.714313888436894 6.26451539591448 0 0 0
193 1 8.025270681738341 11.151651136504318 7.826826948475151 0 0 0
222 1 11.176486911580545 11.123218217499609 7.852694615358641 0 0 0
163 1 12.758986959965855 12.704404706346978 6.274433572178688 0 0 0
195 1 14.344478695626352 11.123785510598836 7.853492672810837 0 0 0
198 1 8.002329124733665 14.29754496764184 7.849750599810186 0 0 0
199 1 11.173389979290851 14.292073762631908 7.855935314614086 0 0 0
136 1 8.004446582793419 11.12347375847401 1.522573268156629 0 0 0
239 1 14.348596268667736 1.6279178810900972 7.858613761005023 0 0 0
82 1 9.588595674487271 0.0512269871445239 9.436022309509477 0 0 0
84 1 12.759544669077286 0.04658967236176015 9.436321086918927 0 0 0
135 1 8.013178930605072 7.945326501900356 14.239707220964592 0 0 -1
92 1 9.566550509352298 3.225564535375593 9.41180985697616 0 0 0
94 1 12.75547415448172 3.2114662049580938 9.427444419889003 0 0 0
248 1 11.181386122817758 14.285783496919962 14.189501820028745 0 0 0
99 1 9.532775428584257 6.370625926491581 9.365341464791976 0 0 0
100 1 12.762974401899816 6.374502258978954 9.42777408322185 0 0 0
205 1 14.360399915101492 7.955624762798356 11.019708059212382 0 0 0
119 1 9.609836969275895 9.530200947164335 9.442130204033552 0 0 0
214 1 12.769699860984336 9.543180502594106 9.430639622023593 0 0 0
223 1 9.586884897270375 12.710316808879199 9.433427137781926 0 0 0
213 1 12.759671724993007 12.707355548194924 9.43750732579055 0 0 0
107 1 9.592059704230099 0.039295829825708534 12.60306062154343 0 0 0
81 1 8.00395381449597 1.629412314094801 11.010164804556707 0 0 0
83 1 11.169163072205604 1.630125172132822 11.005001630119336 0 0 0
109 1 12.763080877782569 0.042246190332098484 12.600066189947375 0 0 0
188 1 14.351493279143945 1.625161563450376 11.01005500072871 0 0 0
117 1 9.614616900803298 3.1508650695983635 12.620173934481638 0 0 0
91 1 8.025602874151037 4.737664311945178 11.067104136541966 0 0 0
85 1 12.754576329095947 3.2174121667927964 12.540389781712161 0 0 0
93 1 11.140046825746275 4.819273268306871 10.951015286512318 0 0 0
95 1 14.352413990550756 4.793824370071714 11.013514206964697 0 0 0
25 1 8.99698236980634 7.01016212142004 11.978671801418514 0 0 -1
125 1 12.805086568248674 6.349328104549017 12.625138939473578 0 0 0
237 1 9.564569946206639 9.57889676603423 12.573839948190095 0 0 0
141 1 14.351076431800985 11.123340675402037 14.184982967761469 -1 0 -1
230 1 12.767467850530494 9.545082818290817 12.60104082685742 0 0 0
204 1 11.246231340409455 7.946489105270448 11.01489215232794 0 0 0
211 1 7.971982938143758 11.139520562718024 10.985210571623528 0 0 0
247 1 9.583979150951178 12.709925497899066 12.595006068793456 0 0 0
212 1 11.175060983223538 11.12622784446476 11.01483883005515 0 0 0
240 1 12.761965960336147 12.706618380282025 12.602278847446094 0 0 0
215 1 14.34813319440045 11.123893933091612 11.019372235568502 0 0 0
221 1 7.998480530133656 14.293323864234301 11.012707706890774 0 0 0
249 1 11.17431237076114 14.289780725141954 11.018738193327659 0 0 0
225 1 14.347447742451964 14.28841272673953 11.020870038182117 0 0 0
106 1 7.998218102241852 1.6228799687440625 14.184328098594778 0 0 0
7 1 9.589493947492986 0.04097118535436028 15.76995869640771 0 0 -1
108 1 11.202429032625735 1.5963602920153888 14.210001847714716 0 0 0
9 1 12.791575227621133 0.026175025983514517 15.79724583474349 0 0 -1
110 1 14.362773216726737 1.6157221292462167 14.146703014744396 0 0 0
147 1 9.590828345963624 12.706232245122354 15.766373490511729 0 0 -1
17 1 9.530603483029664 3.217199242847423 15.762272773552176 0 0 -1
250 1 14.353715148102303 14.283819546011781 14.187654102565883 0 0 0
124 1 10.351816896460901 5.591629237186274 13.366356810683419 0 0 0
228 1 11.7550003155941 4.219794277688135 14.763433839446218 0 0 0
120 1 14.383317188904051 4.766456524812641 14.211234752022945 0 0 0
246 1 8.003855032236828 14.288125808928875 14.182599202475963 0 0 0
229 1 12.762002288845332 6.435380906073071 15.767638924754095 0 0 0
173 1 11.153586678854321 8.002801117630968 14.158918114249824 0 0 0
29 1 9.590238412337017 9.544624711801905 15.77101242061415 0 0 0
139 1 12.762225173709373 9.548790411382342 15.766917735819517 0 0 -1
200 1 14.355855957157296 7.961099201231229 14.184079304726616 0 0 0
236 1 8.000506546110849 11.12622398603566 14.181654578707196 0 0 0
149 1 12.767476271122552 12.703458109904561 15.772054223413713 0 0 -1
238 1 11.173559712715386 11.130816969087256 14.1810903059738 0 0 0
116 1 7.946191492118645 4.817623462921414 14.161825722822375 0 0 0
24 1 9.614247330323568 6.351595376832237 15.81568587272164 0 0 -1

Velocities

2 0 0 0
4 0 0 0
12 0 0 0
14 0 0 0
132 0 0 0
126 0 0 0
38 0 0 0
46 0 0 0
134 0 0 0
142 0 0 0
144 0 0 0
27 0 0 0
26 0 0 0
28 0 0 0
58 0 0 0
159 0 0 0
37 0 0 0
56 0 0 0
39 0 0 0
185 0 0 0
40 0 0 0
180 0 0 0
47 0 0 0
48 0 0 0
151 0 0 0
156 0 0 0
152 0 0 0
22 0 0 0
160 0 0 0
157 0 0 0
166 0 0 0
168 0 0 0
170 0 0 0
45 0 0 0
167 0 0 0
169 0 0 0
35 0 0 0
51 0 0 0
67 0 0 0
52 0 0 0
53 0 0 0
71 0 0 0
57 0 0 0
72 0 0 0
41 0 0 0
61 0 0 0
62 0 0 0
63 0 0 0
186 0 0 0
176 0 0 0
177 0 0 0
187 0 0 0
178 0 0 0
191 0 0 0
174 0 0 0
182 0 0 0
192 0 0 0
183 0 0 0
196 0 0 0
80 0 0 0
76 0 0 0
78 0 0 0
68 0 0 0
86 0 0 0
66 0 0 0
90 0 0 0
96 0 0 0
97 0 0 0
98 0 0 0
206 0 0 0
208 0 0 0
210 0 0 0
216 0 0 0
218 0 0 0
220 0 0 0
77 0 0 0
101 0 0 0
79 0 0 0
103 0 0 0
219 0 0 0
87 0 0 0
111 0 0 0
89 0 0 0
104 0 0 0
115 0 0 0
121 0 0 0
122 0 0 0
123 0 0 0
11 0 0 0
201 0 0 0
202 0 0 0
233 0 0 0
203 0 0 0
243 0 0 0
241 0 0 0
207 0 0 0
209 0 0 0
245 0 0 0
217 0 0 0
105 0 0 0
102 0 0 0
1 0 0 0
3 0 0 0
5 0 0 0
146 0 0 0
113 0 0 0
244 0 0 0
114 0 0 0
13 0 0 0
15 0 0 0
21 0 0 0
127 0 0 0
23 0 0 0
226 0 0 0
131 0 0 0
133 0 0 0
235 0 0 0
242 0 0 0
232 0 0 0
49 0 0 0
234 0 0 0
143 0 0 0
145 0 0 0
158 0 0 0
231 0 0 0
175 0 0 0
6 0 0 0
8 0 0 0
10 0 0 0
16 0 0 0
18 0 0 0
20 0 0 0
128 0 0 0
129 0 0 0
130 0 0 0
70 0 0 0
112 0 0 0
137 0 0 0
140 0 0 0
19 0 0 0
148 0 0 0
150 0 0 0
54 0 0 0
32 0 0 0
224 0 0 0
44 0 0 0
36 0 0 0
42 0 0 0
64 0 0 0
227 0 0 0
43 0 0 0
65 0 0 0
88 0 0 0
50 0 0 0
55 0 0 0
153 0 0 0
154 0 0 0
164 0 0 0
155 0 0 0
172 0 0 0
161 0 0 0
138 0 0 0
162 0 0 0
165 0 0 0
171 0 0 0
30 0 0 0
197 0 0 0
34 0 0 0
31 0 0 0
69 0 0 0
33 0 0 0
59 0 0 0
60 0 0 0
74 0 0 0
75 0 0 0
181 0 0 0
73 0 0 0
118 0 0 0
179 0 0 0
189 0 0 0
194 0 0 0
190 0 0 0
184 0 0 0
193 0 0 0
222 0 0 0
163 0 0 0
195 0 0 0
198 0 0 0
199 0 0 0
136 0 0 0
239 0 0 0
82 0 0 0
84 0 0 0
135 0 0 0
92 0 0 0
94 0 0 0
248 0 0 0
99 0 0 0
100 0 0 0
205 0 0 0
119 0 0 0
214 0 0 0
223 0 0 0
213 0 0 0
107 0 0 0
81 0 0 0
83 0 0 0
109 0 0 0
188 0 0 0
117 0 0 0
91 0 0 0
85 0 0 0
93 0 0 0
95 0 0 0
25 0 0 0
125 0 0 0
237 0 0 0
141 0 0 0
230 0 0 0
204 0 0 0
211 0 0 0
247 0 0 0
212 0 0 0
240 0 0 0
215 0 0 0
221 0 0 0
249 0 0 0
225 0 0 0
106 0 0 0
7 0 0 0
108 0 0 0
9 0 0 0
110 0 0 0
147 0 0 0
17 0 0 0
250 0 0 0
124 0 0 0
228 0 0 0
120 0 0 0
246 0 0 0
229 0 0 0
173 0 0 0
29 0 0 0
139 0 0 0
200 0 0 0
236 0 0 0
149 0 0 0
238 0 0 0
116 0 0 0
24 0 0 0
