LAMMPS data file via write_data, version 22 Jul 2025, timestep = 4, units = metal

250 atoms
1 atom types

1.9573207888237194e-07 15.825977804267922 xlo xhi
0 15.825978000000001 ylo yhi
0 15.825978000000001 zlo zhi

Masses

1 183.841

Atoms # atomic

1 1 1.9573207981945836e-07 9.11033968396021e-16 8.464600904323183e-16 0 0 0
2 1 1.5825979565856638 1.5825978000000007 1.5825978000000007 0 0 0
3 1 3.1651957174392487 8.73791228138368e-16 8.747091685364692e-16 0 0 0
4 1 4.747793478292833 1.5825978000000007 1.5825978000000007 0 0 0
5 1 6.330391239146417 9.371364609634995e-16 9.362019733600958e-16 0 0 0
6 1 7.9129890000000005 1.5825978000000007 1.5825978000000007 0 0 0
7 1 9.495586760853586 8.872842874252249e-16 8.870240994448422e-16 0 0 0
8 1 11.07818452170717 1.5825978000000007 1.5825978000000007 0 0 0
9 1 12.660782282560756 9.77849385942316e-16 8.964257249249088e-16 0 0 0
10 1 14.243380043414339 1.5825978000000007 1.5825978000000007 0 0 0
11 1 1.9573207982184948e-07 3.1651956000000014 8.462103751572483e-16 0 0 0
12 1 1.5825979565856638 4.747793400000001 1.5825978000000007 0 0 0
13 1 3.1651957174392487 3.1651956000000014 9.283544290502168e-16 0 0 0
14 1 4.747793478292832 4.747793400000001 1.5825978000000007 0 0 0
15 1 6.330391239146417 3.1651956000000014 9.713546347062718e-16 0 0 0
16 1 7.9129890000000005 4.747793400000001 1.5825978000000007 0 0 0
17 1 9.495586760853586 3.1651956000000014 9.349184270620216e-16 0 0 0
18 1 11.07818452170717 4.747793400000001 1.5825978000000007 0 0 0
19 1 12.660782282560756 3.1651956000000014 8.781572768846602e-16 0 0 0
20 1 14.243380043414339 4.747793400000001 1.5825978000000007 0 0 0
21 1 1.957320799804146e-07 6.330391200000002 8.000582772018456e-16 0 0 0
22 1 3.165195717439248 6.330391200000002 8.490089883374348e-16 0 0 0
23 1 6.330391239146417 6.330391200000002 9.736583366566655e-16 0 0 0
24 1 9.495586760853586 6.330391200000002 8.739666188686973e-16 0 0 0
25 1 12.660782282560756 6.330391200000002 8.467851216640872e-16 0 0 0
26 1 1.9573207981505202e-07 9.1644649294335e-16 3.1651956000000014 0 0 0
27 1 1.5825979565856638 1.5825978000000007 4.747793400000001 0 0 0
28 1 3.1651957174392487 8.85218089726097e-16 3.1651956000000014 0 0 0
29 1 4.747793478292832 1.5825978000000007 4.747793400000001 0 0 0
30 1 6.330391239146417 9.39620514524798e-16 3.1651956000000014 0 0 0
31 1 7.9129890000000005 1.5825978000000007 4.747793400000001 0 0 0
32 1 9.495586760853586 8.850746956345463e-16 3.1651956000000014 0 0 0
33 1 11.07818452170717 1.5825978000000007 4.747793400000001 0 0 0
34 1 12.660782282560756 9.665245410083602e-16 3.1651956000000014 0 0 0
35 1 14.243380043414339 1.5825978000000007 4.747793400000001 0 0 0
36 1 1.957320798083309e-07 3.1651956000000014 3.1651956000000014 0 0 0
37 1 1.5825979565856638 4.747793400000001 4.747793400000001 0 0 0
38 1 3.1651957174392487 3.1651956000000014 3.1651956000000014 0 0 0
39 1 4.747793478292833 4.747793400000001 4.747793400000001 0 0 0
40 1 6.330391239146417 3.1651956000000014 3.1651956000000014 0 0 0
41 1 7.9129890000000005 4.747793400000001 4.747793400000001 0 0 0
42 1 9.495586760853586 3.1651956000000014 3.1651956000000014 0 0 0
43 1 11.07818452170717 4.747793400000001 4.747793400000001 0 0 0
44 1 12.660782282560756 3.1651956000000014 3.1651956000000014 0 0 0
45 1 14.243380043414339 4.747793400000001 4.747793400000001 0 0 0
46 1 1.957320800157226e-07 6.330391200000002 3.1651956000000014 0 0 0
47 1 3.165195717439248 6.330391200000002 3.1651956000000014 0 0 0
48 1 6.330391239146417 6.330391200000002 3.1651956000000014 0 0 0
49 1 9.495586760853586 6.330391200000002 3.1651956000000014 0 0 0
50 1 12.660782282560756 6.330391200000002 3.1651956000000014 0 0 0
51 1 1.957320798727617e-07 9.858751245163593e-16 6.330391200000002 0 0 0
52 1 3.165195717439248 8.528807633164852e-16 6.330391200000002 0 0 0
53 1 6.330391239146417 9.813696095617097e-16 6.330391200000002 0 0 0
54 1 9.495586760853586 8.821910074809042e-16 6.330391200000002 0 0 0
55 1 12.660782282560756 9.232155007494345e-16 6.330391200000002 0 0 0
56 1 1.9573207991687332e-07 3.1651956000000014 6.330391200000002 0 0 0
57 1 3.165195717439248 3.1651956000000014 6.330391200000002 0 0 0
58 1 6.330391239146417 3.1651956000000014 6.330391200000002 0 0 0
59 1 9.495586760853586 3.1651956000000014 6.330391200000002 0 0 0
60 1 12.660782282560756 3.1651956000000014 6.330391200000002 0 0 0
61 1 1.9573207988680675e-07 6.330391200000002 6.330391200000002 0 0 0
62 1 3.165195717439248 6.330391200000002 6.330391200000002 0 0 0
63 1 6.330391239146417 6.330391200000002 6.330391200000002 0 0 0
64 1 9.495586760853586 6.330391200000002 6.330391200000002 0 0 0
65 1 12.660782282560756 6.330391200000002 6.330391200000002 0 0 0
66 1 1.5825979565856638 1.5825978000000007 7.9129890000000005 0 0 0
76 1 1.9573207990925092e-07 9.314243335882854e-16 9.495586800000002 0 0 0
67 1 4.747793478292832 1.5825978000000007 7.9129890000000005 0 0 0
78 1 3.1651957174392487 8.856532841342146e-16 9.495586800000002 0 0 0
80 1 6.330391239146417 7.880860429116538e-16 9.495586800000002 0 0 0
68 1 7.9129890000000005 1.5825978000000007 7.9129890000000005 0 0 0
82 1 9.495586760853586 8.839566213174122e-16 9.495586800000002 0 0 0
69 1 11.07818452170717 1.5825978000000007 7.9129890000000005 0 0 0
84 1 12.660782282560756 1.0260199863023232e-15 9.495586800000002 0 0 0
70 1 14.243380043414339 1.5825978000000007 7.9129890000000005 0 0 0
71 1 1.5825979565856638 4.747793400000001 7.912989000000001 0 0 0
86 1 1.957320799487858e-07 3.1651956000000014 9.495586800000002 0 0 0
72 1 4.747793478292833 4.747793400000001 7.9129890000000005 0 0 0
88 1 3.165195717439248 3.1651956000000014 9.495586800000002 0 0 0
90 1 6.330391239146417 3.1651956000000014 9.495586800000002 0 0 0
73 1 7.9129890000000005 4.747793400000001 7.9129890000000005 0 0 0
92 1 9.495586760853586 3.1651956000000014 9.495586800000002 0 0 0
74 1 11.07818452170717 4.747793400000001 7.9129890000000005 0 0 0
94 1 12.660782282560756 3.1651956000000014 9.495586800000002 0 0 0
75 1 14.243380043414339 4.747793400000001 7.912989000000001 0 0 0
96 1 1.9573208011321153e-07 6.330391200000002 9.495586800000002 0 0 0
97 1 3.165195717439248 6.330391200000002 9.495586800000002 0 0 0
98 1 6.330391239146417 6.330391200000002 9.495586800000002 0 0 0
99 1 9.495586760853586 6.330391200000002 9.495586800000002 0 0 0
100 1 12.660782282560756 6.330391200000002 9.495586800000002 0 0 0
77 1 1.5825979565856638 1.5825978000000007 11.078184600000002 0 0 0
101 1 1.9573207991949385e-07 9.372272619693922e-16 12.660782400000004 0 0 0
79 1 4.747793478292832 1.5825978000000007 11.078184600000002 0 0 0
103 1 3.1651957174392487 8.373509906607689e-16 12.660782400000004 0 0 0
105 1 6.330391239146417 8.294706076073992e-16 12.660782400000004 0 0 0
81 1 7.9129890000000005 1.5825978000000007 11.078184600000002 0 0 0
107 1 9.495586760853586 8.91115765366622e-16 12.660782400000004 0 0 0
83 1 11.07818452170717 1.5825978000000007 11.078184600000002 0 0 0
109 1 12.660782282560756 1.043034684906457e-15 12.660782400000004 0 0 0
85 1 14.243380043414339 1.5825978000000007 11.078184600000002 0 0 0
87 1 1.5825979565856638 4.747793400000001 11.078184600000002 0 0 0
111 1 1.9573207991366383e-07 3.1651956000000014 12.660782400000004 0 0 0
89 1 4.747793478292833 4.747793400000001 11.078184600000002 0 0 0
113 1 3.165195717439248 3.1651956000000014 12.660782400000004 0 0 0
115 1 6.330391239146417 3.1651956000000014 12.660782400000004 0 0 0
91 1 7.9129890000000005 4.747793400000001 11.078184600000002 0 0 0
117 1 9.495586760853586 3.1651956000000014 12.660782400000004 0 0 0
93 1 11.07818452170717 4.747793400000001 11.078184600000002 0 0 0
119 1 12.660782282560756 3.1651956000000014 12.660782400000004 0 0 0
95 1 14.243380043414339 4.747793400000001 11.078184600000002 0 0 0
121 1 1.9573208005999642e-07 6.330391200000002 12.660782400000004 0 0 0
122 1 3.165195717439248 6.330391200000002 12.660782400000004 0 0 0
123 1 6.330391239146417 6.330391200000002 12.660782400000004 0 0 0
124 1 9.495586760853586 6.330391200000002 12.660782400000004 0 0 0
125 1 12.660782282560756 6.330391200000002 12.660782400000004 0 0 0
102 1 1.5825979565856638 1.5825978000000007 14.243380200000002 0 0 0
104 1 4.747793478292832 1.5825978000000007 14.243380200000002 0 0 0
106 1 7.9129890000000005 1.5825978000000007 14.243380200000002 0 0 0
108 1 11.07818452170717 1.5825978000000007 14.243380200000002 0 0 0
110 1 14.243380043414339 1.5825978000000007 14.243380200000002 0 0 0
112 1 1.5825979565856638 4.747793400000001 14.243380200000002 0 0 0
114 1 4.747793478292833 4.747793400000001 14.243380200000002 0 0 0
116 1 7.9129890000000005 4.747793400000001 14.243380200000002 0 0 0
118 1 11.07818452170717 4.747793400000001 14.243380200000002 0 0 0
120 1 14.243380043414339 4.747793400000001 14.243380200000002 0 0 0
126 1 1.5825979565856638 7.9129890000000005 1.5825978000000007 0 0 0
131 1 1.9573207983556596e-07 9.495586800000002 8.542767506406552e-16 0 0 0
127 1 4.747793478292832 7.9129890000000005 1.5825978000000007 0 0 0
133 1 3.1651957174392487 9.495586800000002 8.782610965673203e-16 0 0 0
135 1 6.330391239146417 9.495586800000002 7.875979161530531e-16 0 0 0
128 1 7.9129890000000005 7.9129890000000005 1.5825978000000007 0 0 0
137 1 9.495586760853586 9.495586800000002 9.236954506442568e-16 0 0 0
129 1 11.07818452170717 7.9129890000000005 1.5825978000000007 0 0 0
139 1 12.660782282560756 9.495586800000002 8.873966744857467e-16 0 0 0
130 1 14.243380043414339 7.9129890000000005 1.5825978000000007 0 0 0
132 1 1.582597956585664 11.078184600000002 1.5825978000000007 0 0 0
141 1 1.9573207987969898e-07 12.660782400000004 8.953208341573999e-16 0 0 0
134 1 4.747793478292832 11.078184600000002 1.5825978000000007 0 0 0
143 1 3.1651957174392487 12.660782400000004 8.353880376875635e-16 0 0 0
145 1 6.330391239146417 12.660782400000004 8.332040314484585e-16 0 0 0
136 1 7.9129890000000005 11.078184600000002 1.5825978000000007 0 0 0
147 1 9.495586760853586 12.660782400000004 8.875574261578774e-16 0 0 0
138 1 11.07818452170717 11.078184600000002 1.5825978000000007 0 0 0
149 1 12.660782282560756 12.660782400000004 9.87275287174403e-16 0 0 0
140 1 14.243380043414339 11.078184600000002 1.582597800000001 0 0 0
142 1 1.5825979565856638 14.243380200000002 1.5825978000000007 0 0 0
144 1 4.747793478292832 14.243380200000002 1.5825978000000007 0 0 0
146 1 7.9129890000000005 14.243380200000002 1.5825978000000007 0 0 0
148 1 11.07818452170717 14.243380200000002 1.5825978000000007 0 0 0
150 1 14.243380043414339 14.243380200000002 1.582597800000001 0 0 0
151 1 1.5825979565856638 7.9129890000000005 4.747793400000001 0 0 0
156 1 1.9573207982088175e-07 9.495586800000002 3.1651956000000014 0 0 0
152 1 4.747793478292833 7.9129890000000005 4.747793400000001 0 0 0
158 1 3.165195717439248 9.495586800000002 3.1651956000000014 0 0 0
160 1 6.330391239146417 9.495586800000002 3.1651956000000014 0 0 0
153 1 7.9129890000000005 7.9129890000000005 4.747793400000001 0 0 0
162 1 9.495586760853586 9.495586800000002 3.1651956000000014 0 0 0
154 1 11.07818452170717 7.9129890000000005 4.747793400000001 0 0 0
164 1 12.660782282560756 9.495586800000002 3.1651956000000014 0 0 0
155 1 14.243380043414339 7.912989000000001 4.747793400000001 0 0 0
157 1 1.582597956585664 11.078184600000002 4.747793400000001 0 0 0
166 1 1.9573207981407044e-07 12.660782400000004 3.1651956000000014 0 0 0
159 1 4.747793478292832 11.078184600000002 4.747793400000001 0 0 0
168 1 3.165195717439248 12.660782400000004 3.1651956000000014 0 0 0
170 1 6.330391239146417 12.660782400000004 3.1651956000000014 0 0 0
161 1 7.9129890000000005 11.078184600000002 4.747793400000001 0 0 0
172 1 9.495586760853586 12.660782400000004 3.1651956000000014 0 0 0
163 1 11.07818452170717 11.078184600000002 4.747793400000001 0 0 0
174 1 12.660782282560756 12.660782400000004 3.1651956000000014 0 0 0
165 1 14.243380043414339 11.078184600000002 4.747793400000001 0 0 0
167 1 1.582597956585664 14.243380200000002 4.747793400000001 0 0 0
169 1 4.747793478292832 14.243380200000002 4.747793400000001 0 0 0
171 1 7.9129890000000005 14.243380200000002 4.747793400000001 0 0 0
173 1 11.07818452170717 14.243380200000002 4.747793400000001 0 0 0
175 1 14.243380043414339 14.243380200000002 4.747793400000001 0 0 0
176 1 1.9573207983396978e-07 9.495586800000002 6.330391200000002 0 0 0
177 1 3.165195717439248 9.495586800000002 6.330391200000002 0 0 0
178 1 6.330391239146417 9.495586800000002 6.330391200000002 0 0 0
179 1 9.495586760853586 9.495586800000002 6.330391200000002 0 0 0
180 1 12.660782282560756 9.495586800000002 6.330391200000002 0 0 0
181 1 1.9573207981819769e-07 12.660782400000004 6.330391200000002 0 0 0
182 1 3.165195717439248 12.660782400000004 6.330391200000002 0 0 0
183 1 6.330391239146417 12.660782400000004 6.330391200000002 0 0 0
184 1 9.495586760853586 12.660782400000004 6.330391200000002 0 0 0
185 1 12.660782282560756 12.660782400000004 6.330391200000002 0 0 0
186 1 1.5825979565856638 7.9129890000000005 7.912989000000001 0 0 0
206 1 1.957320798822706e-07 9.495586800000002 9.495586800000002 0 0 0
187 1 4.747793478292833 7.9129890000000005 7.9129890000000005 0 0 0
208 1 3.165195717439248 9.495586800000002 9.495586800000002 0 0 0
210 1 6.330391239146417 9.495586800000002 9.495586800000002 0 0 0
188 1 7.9129890000000005 7.9129890000000005 7.9129890000000005 0 0 0
212 1 9.495586760853586 9.495586800000002 9.495586800000002 0 0 0
189 1 11.07818452170717 7.9129890000000005 7.9129890000000005 0 0 0
214 1 12.660782282560756 9.495586800000002 9.495586800000002 0 0 0
190 1 14.243380043414339 7.9129890000000005 7.9129890000000005 0 0 0
191 1 1.582597956585664 11.078184600000002 7.9129890000000005 0 0 0
216 1 1.9573207986749265e-07 12.660782400000004 9.495586800000002 0 0 0
192 1 4.747793478292832 11.078184600000002 7.912989000000001 0 0 0
218 1 3.1651957174392487 12.660782400000004 9.495586800000002 0 0 0
220 1 6.330391239146417 12.660782400000004 9.495586800000002 0 0 0
193 1 7.9129890000000005 11.078184600000002 7.9129890000000005 0 0 0
222 1 9.495586760853586 12.660782400000004 9.495586800000002 0 0 0
194 1 11.07818452170717 11.078184600000002 7.9129890000000005 0 0 0
224 1 12.660782282560756 12.660782400000004 9.495586800000002 0 0 0
195 1 14.243380043414339 11.078184600000002 7.9129890000000005 0 0 0
196 1 1.5825979565856638 14.243380200000002 7.9129890000000005 0 0 0
197 1 4.747793478292832 14.243380200000002 7.912989000000001 0 0 0
198 1 7.9129890000000005 14.243380200000002 7.9129890000000005 0 0 0
199 1 11.07818452170717 14.243380200000002 7.9129890000000005 0 0 0
200 1 14.243380043414339 14.243380200000002 7.9129890000000005 0 0 0
201 1 1.5825979565856638 7.9129890000000005 11.078184600000002 0 0 0
231 1 1.9573207987202213e-07 9.495586800000002 12.660782400000004 0 0 0
202 1 4.747793478292833 7.9129890000000005 11.078184600000002 0 0 0
233 1 3.165195717439248 9.495586800000002 12.660782400000004 0 0 0
235 1 6.330391239146417 9.495586800000002 12.660782400000004 0 0 0
203 1 7.9129890000000005 7.9129890000000005 11.078184600000002 0 0 0
237 1 9.495586760853586 9.495586800000002 12.660782400000004 0 0 0
204 1 11.07818452170717 7.9129890000000005 11.078184600000002 0 0 0
239 1 12.660782282560756 9.495586800000002 12.660782400000004 0 0 0
205 1 14.243380043414339 7.9129890000000005 11.078184600000002 0 0 0
207 1 1.5825979565856638 11.078184600000002 11.078184600000002 0 0 0
241 1 1.9573207993220726e-07 12.660782400000004 12.660782400000004 0 0 0
209 1 4.747793478292832 11.078184600000002 11.078184600000002 0 0 0
243 1 3.165195717439248 12.660782400000004 12.660782400000004 0 0 0
245 1 6.330391239146417 12.660782400000004 12.660782400000004 0 0 0
211 1 7.9129890000000005 11.078184600000002 11.078184600000002 0 0 0
247 1 9.495586760853586 12.660782400000004 12.660782400000004 0 0 0
213 1 11.07818452170717 11.078184600000002 11.078184600000002 0 0 0
249 1 12.660782282560756 12.660782400000004 12.660782400000004 0 0 0
215 1 14.243380043414339 11.078184600000002 11.078184600000002 0 0 0
217 1 1.5825979565856638 14.243380200000002 11.078184600000002 0 0 0
219 1 4.747793478292832 14.243380200000002 11.078184600000002 0 0 0
221 1 7.9129890000000005 14.243380200000002 11.078184600000002 0 0 0
223 1 11.07818452170717 14.243380200000002 11.078184600000002 0 0 0
225 1 14.243380043414339 14.243380200000002 11.078184600000002 0 0 0
226 1 1.5825979565856638 7.9129890000000005 14.243380200000002 0 0 0
227 1 4.747793478292833 7.9129890000000005 14.243380200000002 0 0 0
228 1 7.9129890000000005 7.9129890000000005 14.243380200000002 0 0 0
229 1 11.07818452170717 7.9129890000000005 14.243380200000002 0 0 0
230 1 14.243380043414339 7.9129890000000005 14.243380200000002 0 0 0
232 1 1.5825979565856638 11.078184600000002 14.243380200000002 0 0 0
234 1 4.747793478292832 11.078184600000002 14.243380200000002 0 0 0
236 1 7.9129890000000005 11.078184600000002 14.243380200000002 0 0 0
238 1 11.07818452170717 11.078184600000002 14.243380200000002 0 0 0
240 1 14.243380043414339 11.078184600000002 14.243380200000002 0 0 0
242 1 1.582597956585664 14.243380200000002 14.243380200000002 0 0 0
244 1 4.747793478292832 14.243380200000002 14.243380200000002 0 0 0
246 1 7.9129890000000005 14.243380200000002 14.243380200000002 0 0 0
248 1 11.07818452170717 14.243380200000002 14.243380200000002 0 0 0
250 1 14.243380043414339 14.243380200000002 14.243380200000002 0 0 0

Velocities

1 0 0 0
2 0 0 0
3 0 0 0
4 0 0 0
5 0 0 0
6 0 0 0
7 0 0 0
8 0 0 0
9 0 0 0
10 0 0 0
11 0 0 0
12 0 0 0
13 0 0 0
14 0 0 0
15 0 0 0
16 0 0 0
17 0 0 0
18 0 0 0
19 0 0 0
20 0 0 0
21 0 0 0
22 0 0 0
23 0 0 0
24 0 0 0
25 0 0 0
26 0 0 0
27 0 0 0
28 0 0 0
29 0 0 0
30 0 0 0
31 0 0 0
32 0 0 0
33 0 0 0
34 0 0 0
35 0 0 0
36 0 0 0
37 0 0 0
38 0 0 0
39 0 0 0
40 0 0 0
41 0 0 0
42 0 0 0
43 0 0 0
44 0 0 0
45 0 0 0
46 0 0 0
47 0 0 0
48 0 0 0
49 0 0 0
50 0 0 0
51 0 0 0
52 0 0 0
53 0 0 0
54 0 0 0
55 0 0 0
56 0 0 0
57 0 0 0
58 0 0 0
59 0 0 0
60 0 0 0
61 0 0 0
62 0 0 0
63 0 0 0
64 0 0 0
65 0 0 0
66 0 0 0
76 0 0 0
67 0 0 0
78 0 0 0
80 0 0 0
68 0 0 0
82 0 0 0
69 0 0 0
84 0 0 0
70 0 0 0
71 0 0 0
86 0 0 0
72 0 0 0
88 0 0 0
90 0 0 0
73 0 0 0
92 0 0 0
74 0 0 0
94 0 0 0
75 0 0 0
96 0 0 0
97 0 0 0
98 0 0 0
99 0 0 0
100 0 0 0
77 0 0 0
101 0 0 0
79 0 0 0
103 0 0 0
105 0 0 0
81 0 0 0
107 0 0 0
83 0 0 0
109 0 0 0
85 0 0 0
87 0 0 0
111 0 0 0
89 0 0 0
113 0 0 0
115 0 0 0
91 0 0 0
117 0 0 0
93 0 0 0
119 0 0 0
95 0 0 0
121 0 0 0
122 0 0 0
123 0 0 0
124 0 0 0
125 0 0 0
102 0 0 0
104 0 0 0
106 0 0 0
108 0 0 0
110 0 0 0
112 0 0 0
114 0 0 0
116 0 0 0
118 0 0 0
120 0 0 0
126 0 0 0
131 0 0 0
127 0 0 0
133 0 0 0
135 0 0 0
128 0 0 0
137 0 0 0
129 0 0 0
139 0 0 0
130 0 0 0
132 0 0 0
141 0 0 0
134 0 0 0
143 0 0 0
145 0 0 0
136 0 0 0
147 0 0 0
138 0 0 0
149 0 0 0
140 0 0 0
142 0 0 0
144 0 0 0
146 0 0 0
148 0 0 0
150 0 0 0
151 0 0 0
156 0 0 0
152 0 0 0
158 0 0 0
160 0 0 0
153 0 0 0
162 0 0 0
154 0 0 0
164 0 0 0
155 0 0 0
157 0 0 0
166 0 0 0
159 0 0 0
168 0 0 0
170 0 0 0
161 0 0 0
172 0 0 0
163 0 0 0
174 0 0 0
165 0 0 0
167 0 0 0
169 0 0 0
171 0 0 0
173 0 0 0
175 0 0 0
176 0 0 0
177 0 0 0
178 0 0 0
179 0 0 0
180 0 0 0
181 0 0 0
182 0 0 0
183 0 0 0
184 0 0 0
185 0 0 0
186 0 0 0
206 0 0 0
187 0 0 0
208 0 0 0
210 0 0 0
188 0 0 0
212 0 0 0
189 0 0 0
214 0 0 0
190 0 0 0
191 0 0 0
216 0 0 0
192 0 0 0
218 0 0 0
220 0 0 0
193 0 0 0
222 0 0 0
194 0 0 0
224 0 0 0
195 0 0 0
196 0 0 0
197 0 0 0
198 0 0 0
199 0 0 0
200 0 0 0
201 0 0 0
231 0 0 0
202 0 0 0
233 0 0 0
235 0 0 0
203 0 0 0
237 0 0 0
204 0 0 0
239 0 0 0
205 0 0 0
207 0 0 0
241 0 0 0
209 0 0 0
243 0 0 0
245 0 0 0
211 0 0 0
247 0 0 0
213 0 0 0
249 0 0 0
215 0 0 0
217 0 0 0
219 0 0 0
221 0 0 0
223 0 0 0
225 0 0 0
226 0 0 0
227 0 0 0
228 0 0 0
229 0 0 0
230 0 0 0
232 0 0 0
234 0 0 0
236 0 0 0
238 0 0 0
240 0 0 0
242 0 0 0
244 0 0 0
246 0 0 0
248 0 0 0
250 0 0 0
