LAMMPS data file via write_data, version 22 Jul 2025, timestep = 23448, units = metal

250 atoms
1 atom types

-0.020914225596371405 15.846892225596406 xlo xhi
0 15.825978000000001 ylo yhi
0 15.825978000000001 zlo zhi

Masses

1 183.841

Atoms # atomic

11 1 1.7001412246313745 1.4466310127477986 1.5905070477287493 0 0 0
4 1 4.867794185445502 1.444885199986883 1.5873672381945578 0 0 0
116 1 1.7202672545550575 4.629597280976086 1.6068026321256088 0 0 0
110 1 0.12754085569796517 3.056728001641659 0.03414546096006084 1 0 1
14 1 4.881814010862799 4.6187072075580335 1.595980158638374 0 0 0
13 1 3.2862795170369155 3.032462893311647 0.009696010368224681 0 0 0
182 1 3.274620192882396 12.516262982001852 6.323491571713419 0 0 0
126 1 1.7066386646818907 7.782751243582056 1.583882912942833 0 0 0
191 1 1.6728592900446193 10.926086915390856 7.9033690117504145 0 0 0
132 1 4.884180739216616 7.774519339039514 1.5929976508847863 0 0 0
174 1 0.10086223878792581 12.521395661202991 6.32993418745905 1 0 0
23 1 6.455265633417552 6.192564965502645 0.008355259407173934 0 0 0
227 1 4.861755164469436 1.4495924376880382 7.9077801312127844 0 0 0
78 1 0.10563315844265292 15.686434708792005 6.33296544510398 1 -1 0
158 1 6.455347940127801 9.35428863340298 0.006529479584286908 0 0 0
46 1 1.6970434281597644 10.942581208505342 1.5832033262847813 -1 0 0
80 1 4.851675816729074 14.111313919206435 7.89745119996367 0 -1 0
134 1 4.874898328563175 10.928785017587538 1.5899659679859668 0 0 0
9 1 6.43363025275678 12.489846370650396 6.311551927067999 0 -1 0
142 1 1.6956706535483874 14.10430756199439 1.5850195305998247 0 0 0
210 1 4.758908359806277 10.782764829939943 7.760147171379475 0 0 0
83 1 4.866820366296056 14.101667868326814 1.5860115824591938 0 0 0
34 1 6.449922704129097 15.681964433774189 6.327180861425747 0 -1 0
144 1 6.448480642526705 15.685681404485804 0.008855011483800709 0 0 0
52 1 1.699260944472745 1.440764028987845 4.755016764533785 0 0 0
58 1 4.870187329438907 1.4430784021269714 4.749625028923372 0 0 0
37 1 1.706653419614214 4.606521196265352 4.760038170491942 0 0 0
38 1 0.12607084185462758 3.018038916254476 3.1878589266825625 0 0 0
39 1 4.8841686890407825 4.6157001187692455 4.7517403116643075 0 0 0
185 1 3.2909706822239086 3.02844444249599 3.173498810358434 0 1 0
40 1 6.4552533176039315 3.0310887104724675 3.1698538905981826 0 0 0
180 1 0.22922299344361677 6.311038497058356 3.2883435312983953 0 0 0
151 1 1.724290064217621 7.80447337730422 4.781839403265228 1 0 0
47 1 3.3094085737025054 6.198383898585018 3.1757150583873375 0 0 0
152 1 4.859504008218961 7.7711068304595035 4.748471258988155 0 0 0
48 1 6.479886830678346 6.213912981911076 3.1911696161390752 0 0 0
156 1 0.11483646075423853 9.37551967003323 3.175514356110229 0 0 0
22 1 3.286964792713377 9.354903893553397 3.15562353800773 0 0 0
160 1 6.476039137126219 9.332980563947237 3.1812136122166357 0 0 0
166 1 0.10722033380315037 12.523513257005796 3.1684525848173304 0 0 0
176 1 1.6939897399502664 10.946827468142661 4.748271631476511 0 0 0
170 1 4.868746985187971 10.915349499099932 4.729690579015948 0 0 0
232 1 3.2815751770339627 12.519492401639646 3.1641038924294076 0 0 0
45 1 6.452089742741213 12.511280514369469 3.1643578144088074 0 0 0
26 1 0.11208120614330702 15.682529089858527 3.1732342183895996 0 -1 0
167 1 1.6932523000885975 14.103548115445358 4.749018618805312 0 0 0
169 1 3.282545174909727 15.68622583316997 3.1675041530547157 0 0 0
192 1 4.864971208820548 14.097806980833903 4.744422930102393 0 0 0
159 1 6.453231644248284 15.684910523803836 3.168834203043989 0 -1 0
145 1 6.451986034767184 12.514233391371263 0.01518680425043844 0 0 0
56 1 0.1107956414196624 3.0270892732136243 6.339080606929905 0 0 0
161 1 6.482447334113897 9.314236089549253 6.291650139071362 0 0 0
72 1 4.874864549486821 4.612510692471115 7.905976793922307 0 0 0
57 1 3.2845414958123746 3.025286500778506 6.332764660078543 0 0 0
41 1 6.455320771271046 3.029200786548581 6.331517592678996 0 0 0
75 1 0.11485648575810845 6.198232812258739 6.352858617220188 1 0 0
196 1 3.2772061261970937 15.686330489979111 6.327885689677867 0 0 0
62 1 3.286938166160268 6.178240512842123 6.33219941768974 0 0 0
178 1 4.868720835497166 7.752234120372775 7.892712230379165 0 0 0
63 1 6.476026174676352 6.2038588158967976 6.310280531039862 0 0 0
61 1 0.09305743823409425 9.3546973047664 6.331936656216881 0 0 0
177 1 3.2409662801909906 9.310734532190095 6.288133109975184 0 0 0
131 1 0.11081628425704862 9.361834018987926 0.004374941899086377 0 0 0
97 1 1.6878346738593668 14.100173896101742 7.910014067004332 0 0 0
183 1 3.2815797761779115 12.519360653311548 0.003389886630170438 0 0 1
1 1 0.11218787467172635 15.686599485114593 0.006018358417214103 0 -1 0
133 1 3.284572695961455 9.355508367852924 0.002632613431499102 0 0 0
127 1 3.291036643471898 6.196263937594643 0.0057333078651644965 0 0 0
3 1 3.2803734740656703 15.687064346499147 0.003565638250972693 0 -1 0
49 1 0.10802773959843427 12.520838052231959 0.0025557502169795067 0 0 0
15 1 6.446292743824899 3.0271233509355233 0.004372241682446513 0 0 0
27 1 4.861606303942611 14.100579932594945 14.247665668258296 0 0 0
86 1 0.10801684918759084 3.0252696207300707 9.49821710944356 0 0 0
35 1 3.2815401202925965 3.0260506403274063 9.496561977296507 0 0 0
90 1 6.451954226165496 3.037806635694638 9.491440601762342 0 0 0
96 1 0.10719419226956704 6.191179492992597 9.5008849544925 0 0 0
187 1 3.281535381823699 6.186797189235813 9.496833540295627 0 0 0
98 1 6.45213207816461 6.186893196123127 9.488588052615547 0 0 0
190 1 0.1008577848370898 9.352759636945706 9.498647230915502 1 0 0
208 1 3.274632371623362 9.34623346445507 9.493647967088325 0 0 0
179 1 6.433670419587138 9.33409476214215 9.467286992758575 0 0 0
216 1 0.10241608733386622 12.517026260515438 9.494214548528047 0 0 0
218 1 3.2619034496392536 12.49472908090808 9.47201778554461 0 0 0
220 1 6.192916021318809 12.245404993733672 9.222598817366062 0 0 0
24 1 0.10761253146548233 15.685060839174284 9.496130431157514 0 -1 -1
242 1 1.6946629028095734 14.102978094795567 14.245731627170317 0 0 0
76 1 3.2752758802965607 15.682829577885617 9.492610718390837 0 -1 0
68 1 6.442844891111393 15.730197355085885 9.485130467088261 0 -1 0
77 1 1.694659547136947 1.4425086885136862 11.080222575317313 0 0 0
67 1 4.861645614799621 1.4443428638957376 11.077773519825671 0 0 0
87 1 1.695596960619835 4.607750419573389 11.081650862297643 0 0 0
111 1 0.11209760232430223 3.0286962151302226 12.664081811793737 0 0 0
66 1 4.866797542911027 4.608662777112718 11.078888578950085 0 0 0
104 1 3.280323886036553 3.026308626056498 12.664254013941141 0 0 0
219 1 6.448447750633822 3.031552773128905 12.66295573882888 0 0 0
201 1 1.69321089830736 7.771756014154274 11.08089611146769 0 0 0
121 1 0.11202660607657697 6.195913248258872 12.65991127301696 0 0 0
123 1 4.864952711982713 7.767076047778135 11.075176175862971 0 0 0
157 1 3.282517820399201 6.190230274303765 12.663517759463442 0 0 0
89 1 6.453226963679081 6.191476133668072 12.662231393906849 0 0 0
231 1 0.1056305728380784 9.355711612139183 12.66369824380504 0 0 0
233 1 3.2772717396542204 9.35073519218948 12.66365541834353 0 0 0
203 1 6.449937744470563 9.349791969969111 12.659356610060659 0 0 0
243 1 1.6878645968903048 10.932811812854801 11.077465882072703 0 0 0
241 1 0.10759031269532758 12.518832478440274 12.662341374332689 0 0 0
207 1 3.275273077971712 12.515403568125844 12.660159024064281 0 0 0
209 1 4.8517838296273865 10.920212867839187 11.088651337643936 0 0 0
245 1 6.442712285044535 12.507682376690132 12.70786632166268 0 0 0
168 1 0.11527099456620768 15.689255909102515 12.66660634299386 0 -1 0
217 1 1.6915294392317108 14.097423586425869 11.074672064810802 0 0 0
79 1 3.2760689084248207 15.680739538657217 12.657943295732844 0 -1 0
105 1 4.844123369036729 14.072472825450985 11.049841341146402 0 -1 0
244 1 6.417340410509628 15.6600980142093 12.63738290424807 0 0 0
221 1 7.606920056146848 13.673841015040974 10.651603951206154 0 0 0
102 1 1.6982785996292822 1.4491896709892709 14.252423887557798 0 0 0
5 1 4.859054407350966 1.4404615921821682 14.24364302200131 0 0 -1
71 1 1.697013829232171 4.605902344231228 7.919893773800721 0 0 0
113 1 1.7001535686113598 4.61321678208009 14.249892471934093 0 0 0
114 1 4.86777959681623 4.610102605208786 14.248138320470453 0 0 0
122 1 1.6993607043805798 7.777880250835265 14.243937446022473 0 0 0
235 1 4.870205774814666 7.7723825418861345 14.246383082843879 0 0 0
143 1 1.693419663620412 10.93839510327757 14.245213298831807 0 0 -1
234 1 4.861718985776146 10.93053307647047 14.2530036794629 0 0 0
186 1 1.6940054438763739 7.7709733880395095 7.9241592121641755 0 0 0
12 1 0.12638760833298918 6.21081066269619 15.821113287044039 0 0 -1
51 1 1.6934006475946826 1.4419571638006037 7.915616739044782 0 0 0
6 1 8.036070014868752 1.445751339301394 1.5923624000787762 0 0 0
8 1 11.23773973013146 1.4724399640328334 1.620169685877252 0 0 0
10 1 14.397101880485739 1.4128525387859956 1.5952712359790724 0 0 0
16 1 8.031157377611025 4.623891559999534 1.6011951386393302 0 0 0
18 1 11.151398424816973 4.637223148105237 1.6145905262259617 0 0 0
228 1 13.178909449943038 3.4451472444403697 0.4231923584529402 0 0 1
20 1 14.641903912879267 4.853275721556726 1.8298897393563027 0 0 0
128 1 8.041744212970304 7.775430402225827 1.5674605567486983 0 0 0
28 1 9.624565401090535 6.19873724529748 0.011359998201131717 0 0 0
129 1 11.20488060496446 7.779518631421917 1.6013541989769422 0 0 0
229 1 12.825278670339193 6.214325163305628 0.03587117195323939 0 0 1
130 1 14.405855439004249 7.793586994715801 1.6070317685017546 0 0 0
29 1 9.628024118825362 9.35474709567857 0.008595675042229465 0 0 1
139 1 12.80269085273208 9.356234571028978 0.009638237567390672 0 0 0
136 1 8.041557180259314 10.92529457325003 1.5956283379851943 0 0 0
147 1 9.62582557921573 12.511632652732713 0.01037361464929151 0 0 0
137 1 11.206326545637545 10.928373501522337 1.5946418876381225 0 0 0
149 1 12.79780881818689 12.507753286245979 0.004291284290064678 0 0 0
140 1 14.387891395519969 10.940980749981131 1.5879338560473732 0 0 0
153 1 9.65055872082093 15.709294248076406 0.053687292047959106 0 0 0
148 1 11.213393533029887 14.096735093779321 1.5921678422880272 0 0 0
150 1 14.391184754103968 14.094179943196405 1.5900397389659717 0 0 0
54 1 8.04061393256297 1.440418424651333 4.75127458438359 0 0 0
44 1 11.217345373847506 1.4503524165799686 4.754095087744926 0 0 0
103 1 14.391085798944674 1.446556675028449 4.755316361279003 -1 -1 0
42 1 9.624574037956378 3.034057152515114 3.176085373653734 0 0 0
64 1 8.041761049055077 4.590187848978644 4.752714513333081 0 0 0
200 1 11.204896203319837 4.624120618497404 4.756876634424865 0 0 0
36 1 12.825219847150173 3.0584751791349243 3.191759257114529 -1 0 0
65 1 14.405796139759577 4.629823520380043 4.770932298246836 0 0 0
88 1 9.596158014722315 6.224383328069483 3.2016111258609894 0 0 0
50 1 12.78682395242749 6.2030960212283555 3.1804170490506314 0 0 0
154 1 11.232176121859183 7.77636013905348 4.753581659379095 0 0 0
155 1 14.385372544924543 7.780907849524274 4.758150349545224 0 0 0
55 1 9.608661514012507 9.33552842024541 3.1872678211476044 0 0 0
164 1 12.796136588913521 9.361003304081967 3.171304721267653 0 0 0
19 1 8.040577342740795 10.949355185912308 4.741632363898438 0 0 0
172 1 9.626966603030041 12.513105001185806 3.168505207396618 0 0 0
162 1 11.202685022889531 10.927359531824324 4.748657911887787 0 0 0
138 1 12.797765553550247 12.518856324512853 3.1701921330377196 0 0 0
165 1 14.382342159555522 10.941595691399975 4.751073550714657 0 0 0
32 1 9.63052304327571 15.689184272792698 3.1757384912694153 0 -1 0
171 1 8.03626700341021 14.098163434723185 4.747742539218997 0 0 0
224 1 12.802392522107402 15.687160416603854 3.1731452483360374 0 -1 0
30 1 11.211668377966909 14.10102569570828 4.750499031269961 0 0 0
197 1 14.385755611174197 14.104397397470322 4.750999834784588 0 -1 0
31 1 8.038709194980111 1.4453862243096047 7.9073873895872815 0 0 0
33 1 12.799643885767999 15.686798668398573 6.33099868926197 0 -1 0
112 1 8.041633681846024 14.101551083669376 1.5969087511399431 0 0 0
92 1 8.04158507156495 4.618276079366918 7.902530175786313 0 0 0
59 1 9.628034673038934 3.0313734710393003 6.332058155568901 0 0 0
60 1 12.802691923270576 3.0323994436826 6.333634767081065 0 0 0
74 1 11.206395789579991 4.617358896603182 7.905715484757252 0 0 0
69 1 9.622062819172088 15.679959134014878 6.328421082734225 0 -1 0
181 1 9.608731049204138 6.20995129454112 6.312801129368217 0 0 0
189 1 11.20281031299875 7.771378693619506 7.904603914929634 0 0 0
43 1 12.796162474417509 6.194047311437993 6.338321138504444 0 0 0
198 1 8.01102684356893 14.069544279211174 7.891304801817712 0 0 0
118 1 9.61019210504955 9.326263192481253 6.303594139366437 0 0 0
194 1 12.792699596950841 9.35595195838672 6.333185987193981 0 0 0
193 1 8.051291748445319 10.904174997014529 7.881612267921729 0 0 0
184 1 9.624585906809425 12.508504846633986 6.326287956624922 0 0 0
163 1 12.796274147433467 12.518772754210636 6.329732954029335 0 0 0
222 1 11.209703809120965 10.922640818408405 7.899876750247775 0 0 0
53 1 11.210279368670667 1.4414243291292919 7.905260618584498 0 -1 0
70 1 14.38608647965611 14.102740877032808 7.912752690990565 0 -1 0
199 1 11.213504404722475 14.098695389046505 7.9082425112219585 0 0 0
81 1 9.625877656515634 3.033108244711988 9.48891255835266 0 0 0
94 1 12.79785382525164 3.0270321211092326 9.485158016228622 0 0 0
99 1 9.627113828259898 6.191100565459984 9.49040934304253 0 0 0
175 1 8.040656549535177 7.764212238714269 7.926678177531093 0 0 0
100 1 12.79782850639023 6.192854832857766 9.49624458899001 0 0 0
119 1 9.624696265649874 9.348869619657052 9.485811440666382 0 0 0
214 1 12.796302969613329 9.352460148902187 9.495977773656522 0 0 0
223 1 9.66617025647159 12.507121077051043 9.484484328137865 0 0 0
213 1 12.80714281294817 12.5146195079656 9.491856656755221 0 0 0
82 1 9.601521866744067 15.66060818895585 9.45975321747548 0 -1 0
84 1 12.805224679236344 15.685552718990522 9.490687292516995 0 -1 0
101 1 14.393001171666041 14.097573538736615 14.246486019643632 -1 -1 0
107 1 8.048093650488603 1.503127918690231 11.087226375769513 0 0 0
120 1 11.189764289651967 1.4196133085207867 11.027267907641287 0 0 0
188 1 14.393019071799438 1.4431422968580978 11.075018587604507 0 0 0
91 1 8.041647308771294 4.619509172054762 11.078855201238948 0 0 0
106 1 9.650534792467834 3.0763899335316713 12.686700082255271 0 0 0
85 1 12.796018244688085 3.0218811249682647 12.602152200724463 0 0 0
93 1 11.213419625360746 4.614767586737356 11.074145132584526 0 0 0
95 1 14.391163903677452 4.6126676002709575 11.071702219400958 0 0 0
124 1 9.630585376155947 6.198231976211389 12.66653848657992 0 0 0
25 1 8.036361092505903 7.77024909284467 11.075499516975208 0 0 -1
125 1 12.802463870810055 6.195650298272682 12.66462511451043 0 0 0
204 1 11.211776222820298 7.773052800955745 11.078287528372439 0 0 0
205 1 14.385800258114255 7.773648520114118 11.081703751610059 0 0 0
237 1 9.622138712237136 9.350975106816504 12.657236003500515 0 0 0
230 1 12.799636309078128 9.353588206888139 12.664034447142926 0 0 0
211 1 8.01106242666912 10.913807921719803 11.046961688177891 0 0 0
247 1 9.601505384162722 12.482350636950173 12.637899658409802 0 0 0
212 1 11.213549242739905 10.93088152342817 11.07596665727591 0 0 0
240 1 12.805175132299574 12.513328259706315 12.662805968660038 0 0 0
215 1 14.386101175533035 10.935480818311905 11.079943772770733 0 0 0
248 1 9.01830643904268 15.077284718369908 12.054407056266664 0 0 0
249 1 11.27306456502585 14.110897792456566 11.088239756958277 0 0 0
225 1 12.849992577226711 15.709445660945146 12.686896121716899 0 0 0
108 1 14.39729889073092 14.103347425838113 11.080674634614144 0 0 0
7 1 10.406403744082896 0.6378512083054627 13.44094445791593 0 0 -1
109 1 11.801951687936493 2.0234004556037686 14.826933238536318 0 0 0
2 1 14.421924097654585 1.4693611574361092 14.272858647049844 0 0 0
135 1 8.036034004431505 4.614994731588852 14.249086513666215 0 0 -1
73 1 14.382367203180728 7.773847824064669 7.918880841881691 0 0 0
117 1 11.237737998558302 4.642551519675544 14.275923023158986 0 0 0
21 1 14.396969381216492 4.617710149263507 14.216877632497196 -1 0 -1
202 1 8.04063599052954 7.7738955400635295 14.243668319670176 0 0 0
173 1 11.217391329136513 7.776636420387729 14.253608070391532 0 0 0
226 1 14.391095043098256 7.777943901961331 14.249804904690919 -1 0 0
236 1 8.038732476494909 10.93006783900741 14.248719667681941 0 0 0
238 1 11.210277519767347 10.927895950437032 14.244606044996841 0 0 0
141 1 14.387897804953322 10.936084151714143 14.24687818420043 -1 0 -1
246 1 8.048037395472807 14.109870105054995 14.306495445467638 0 0 0
115 1 11.189771410382722 14.050047721046976 14.222934672233393 0 0 0
146 1 7.989346836934558 1.4189794067704709 14.222295686775917 0 1 -1
206 1 14.387924867722736 4.6106627312024 7.918401651431786 0 0 0
239 1 14.387910071933069 1.443611311153076 7.913463628757306 0 0 0
195 1 14.380983099953319 10.936009684854678 7.9131560064463375 0 0 0
250 1 12.796187376923394 15.624397249224343 15.825475932232731 0 0 0
17 1 9.571134154735336 3.0224089684057796 15.825805251926484 0 0 -1

Velocities

11 0 0 0
4 0 0 0
116 0 0 0
110 0 0 0
14 0 0 0
13 0 0 0
182 0 0 0
126 0 0 0
191 0 0 0
132 0 0 0
174 0 0 0
23 0 0 0
227 0 0 0
78 0 0 0
158 0 0 0
46 0 0 0
80 0 0 0
134 0 0 0
9 0 0 0
142 0 0 0
210 0 0 0
83 0 0 0
34 0 0 0
144 0 0 0
52 0 0 0
58 0 0 0
37 0 0 0
38 0 0 0
39 0 0 0
185 0 0 0
40 0 0 0
180 0 0 0
151 0 0 0
47 0 0 0
152 0 0 0
48 0 0 0
156 0 0 0
22 0 0 0
160 0 0 0
166 0 0 0
176 0 0 0
170 0 0 0
232 0 0 0
45 0 0 0
26 0 0 0
167 0 0 0
169 0 0 0
192 0 0 0
159 0 0 0
145 0 0 0
56 0 0 0
161 0 0 0
72 0 0 0
57 0 0 0
41 0 0 0
75 0 0 0
196 0 0 0
62 0 0 0
178 0 0 0
63 0 0 0
61 0 0 0
177 0 0 0
131 0 0 0
97 0 0 0
183 0 0 0
1 0 0 0
133 0 0 0
127 0 0 0
3 0 0 0
49 0 0 0
15 0 0 0
27 0 0 0
86 0 0 0
35 0 0 0
90 0 0 0
96 0 0 0
187 0 0 0
98 0 0 0
190 0 0 0
208 0 0 0
179 0 0 0
216 0 0 0
218 0 0 0
220 0 0 0
24 0 0 0
242 0 0 0
76 0 0 0
68 0 0 0
77 0 0 0
67 0 0 0
87 0 0 0
111 0 0 0
66 0 0 0
104 0 0 0
219 0 0 0
201 0 0 0
121 0 0 0
123 0 0 0
157 0 0 0
89 0 0 0
231 0 0 0
233 0 0 0
203 0 0 0
243 0 0 0
241 0 0 0
207 0 0 0
209 0 0 0
245 0 0 0
168 0 0 0
217 0 0 0
79 0 0 0
105 0 0 0
244 0 0 0
221 0 0 0
102 0 0 0
5 0 0 0
71 0 0 0
113 0 0 0
114 0 0 0
122 0 0 0
235 0 0 0
143 0 0 0
234 0 0 0
186 0 0 0
12 0 0 0
51 0 0 0
6 0 0 0
8 0 0 0
10 0 0 0
16 0 0 0
18 0 0 0
228 0 0 0
20 0 0 0
128 0 0 0
28 0 0 0
129 0 0 0
229 0 0 0
130 0 0 0
29 0 0 0
139 0 0 0
136 0 0 0
147 0 0 0
137 0 0 0
149 0 0 0
140 0 0 0
153 0 0 0
148 0 0 0
150 0 0 0
54 0 0 0
44 0 0 0
103 0 0 0
42 0 0 0
64 0 0 0
200 0 0 0
36 0 0 0
65 0 0 0
88 0 0 0
50 0 0 0
154 0 0 0
155 0 0 0
55 0 0 0
164 0 0 0
19 0 0 0
172 0 0 0
162 0 0 0
138 0 0 0
165 0 0 0
32 0 0 0
171 0 0 0
224 0 0 0
30 0 0 0
197 0 0 0
31 0 0 0
33 0 0 0
112 0 0 0
92 0 0 0
59 0 0 0
60 0 0 0
74 0 0 0
69 0 0 0
181 0 0 0
189 0 0 0
43 0 0 0
198 0 0 0
118 0 0 0
194 0 0 0
193 0 0 0
184 0 0 0
163 0 0 0
222 0 0 0
53 0 0 0
70 0 0 0
199 0 0 0
81 0 0 0
94 0 0 0
99 0 0 0
175 0 0 0
100 0 0 0
119 0 0 0
214 0 0 0
223 0 0 0
213 0 0 0
82 0 0 0
84 0 0 0
101 0 0 0
107 0 0 0
120 0 0 0
188 0 0 0
91 0 0 0
106 0 0 0
85 0 0 0
93 0 0 0
95 0 0 0
124 0 0 0
25 0 0 0
125 0 0 0
204 0 0 0
205 0 0 0
237 0 0 0
230 0 0 0
211 0 0 0
247 0 0 0
212 0 0 0
240 0 0 0
215 0 0 0
248 0 0 0
249 0 0 0
225 0 0 0
108 0 0 0
7 0 0 0
109 0 0 0
2 0 0 0
135 0 0 0
73 0 0 0
117 0 0 0
21 0 0 0
202 0 0 0
173 0 0 0
226 0 0 0
236 0 0 0
238 0 0 0
141 0 0 0
246 0 0 0
115 0 0 0
146 0 0 0
206 0 0 0
239 0 0 0
195 0 0 0
250 0 0 0
17 0 0 0
