LAMMPS data file via write_data, version 22 Jul 2025, timestep = 46232, units = metal

250 atoms
1 atom types

-0.020995852291944617 15.846973852292024 xlo xhi
0 15.825978000000001 ylo yhi
0 15.825978000000001 zlo zhi

Masses

1 183.841

Atoms # atomic

11 1 1.5221073435142105 1.6455670988592905 1.799719393328567 0 0 0
4 1 4.948515456817866 1.4522714707735653 1.6278044321282024 0 0 0
3 1 2.9777706350868987 0.2080303252105074 0.3894024173089449 0 0 0
180 1 1.718417803389445 4.62045329974623 1.6264554903355364 0 0 0
142 1 3.3223271572087087 12.459174992969293 0.032366468967632435 0 0 0
14 1 4.909212314332422 4.605564004540038 1.6166775214231828 0 0 0
13 1 3.2959398284746753 3.036669478666193 0.05677701788485081 0 0 0
15 1 6.501264582484133 3.0237815870280387 0.031320182785515786 0 0 0
131 1 1.7343734614286088 7.7675861924503335 1.612087448394811 0 0 0
12 1 0.13932073143263835 6.181512296679466 0.021693389919824148 1 0 -1
132 1 4.911753916534624 7.764383622163579 1.6139753924588678 0 0 0
127 1 3.3193041015369644 6.184641856274452 0.033572334165241906 0 0 0
135 1 6.499729822638218 6.181011275050133 0.03021201899650428 0 0 0
207 1 0.14899894868230826 9.348242824120812 0.02851700624132112 0 0 0
133 1 3.3238229574961853 9.338080447662199 0.030455904172581025 0 0 0
158 1 6.499875612788879 9.34112443575874 0.03615442817992499 0 0 0
150 1 0.14418745769976882 12.517607242301276 0.0326424421717661 1 0 0
232 1 1.7320450743259588 10.923500188518089 1.6177108694487128 0 0 0
134 1 4.911291053837534 10.927422449573266 1.618595593810377 0 0 0
46 1 1.7184296533861492 14.071971884258026 1.6269095232247697 -1 0 0
1 1 0.11793979019134325 15.716276725305574 0.04767588494460657 0 -1 0
83 1 4.885278725231888 14.12456026426965 1.6399183383466593 0 0 0
144 1 6.557724352798441 15.678452752468344 0.027927501167217227 0 0 0
52 1 1.7206103582657513 1.4527888641227216 4.800664195633482 0 0 0
185 1 4.909379148680467 1.4404338886929564 4.7838656678373885 0 1 0
37 1 1.7428411919702815 4.606039482418462 4.784432132735933 0 0 0
38 1 0.060048872680916514 3.1080230136968137 3.2834086397694913 0 0 0
116 1 3.3256996235755434 3.028993410448732 3.206293038096446 0 0 0
152 1 4.912786794110045 4.602688048182383 4.780778164609971 0 0 0
40 1 6.503972719332056 3.024841220089034 3.201605109833238 0 0 0
126 1 0.14571250884335915 6.199921815116902 3.198498803123839 0 0 0
157 1 1.7415891176509082 7.769638287137873 4.778741168256693 1 0 0
47 1 3.3243152156716205 6.188154186164547 3.1980920396800574 0 0 0
212 1 4.913347740760335 7.766434008644875 4.777703673191754 0 0 0
48 1 6.4993720101199575 6.183504337113275 3.1944147557900977 0 0 0
156 1 0.15076489811274887 9.351073206781551 3.194909053560779 0 0 0
22 1 3.3253375623414523 9.34916029053028 3.196600687898947 0 0 0
160 1 6.500439889094342 9.347159849401057 3.1967426785979858 0 0 0
166 1 0.14436731327778435 12.51184537308804 3.201122137592829 0 0 0
176 1 1.738714428806949 10.933214721782859 4.77952140221196 0 0 0
170 1 4.9126644024964845 10.932110989186732 4.778792045287618 0 0 0
86 1 3.3211658806571815 12.516306880001082 3.200540460527517 0 0 0
45 1 6.495767857824994 12.518458614653 3.201972918256177 0 0 0
26 1 0.1356381729013008 15.67907501478139 3.2079179241612965 0 -1 0
167 1 1.7328691050025746 14.100921019129265 4.7840016917792765 0 0 0
169 1 3.2975196939156985 15.708041173602256 3.2127770400565265 0 0 0
192 1 4.906534336013184 14.102865135409402 4.780821402775774 0 0 0
159 1 6.499668902609333 15.68214713541052 3.200389934936732 0 -1 0
71 1 0.1450151302335196 3.023248053847112 6.382004201760532 0 0 0
57 1 3.3244569848562575 3.0214289345782257 6.368019681781683 0 0 0
41 1 6.499378801799883 3.0175711144783977 6.3629632198406485 0 0 0
75 1 0.16723201095363466 6.178775218440594 6.359834993633883 1 0 0
72 1 3.3274097930093514 6.182998587737842 6.362429480689829 0 0 0
63 1 6.496481707153468 6.176930892278028 6.356465144820773 0 0 0
61 1 0.15709946331815236 9.348691111079209 6.359204669373752 0 0 0
177 1 3.325864237073346 9.34928845518497 6.360724449678912 0 0 0
19 1 6.501047540070207 9.344836002112679 6.3569863597232 0 0 0
174 1 0.1516269654490992 12.515411439354393 6.36286599261278 1 0 0
182 1 3.3238396689513654 12.516065018808433 6.360600609250237 0 0 0
9 1 6.503827379272928 12.510443853744365 6.356245566887902 0 -1 0
78 1 0.14705286406303436 15.680474670236032 6.369698567807478 1 -1 0
196 1 3.320473606496561 15.684048010093093 6.364478131561621 0 0 0
34 1 6.498618087003333 15.680653210428082 6.360715751874817 0 -1 0
145 1 6.477966475291703 12.536092856711257 0.07641763088444149 0 0 0
2 1 0.1197253421486306 3.0371322762782493 0.011949522390612614 1 0 1
51 1 1.7343049242046762 1.4387072484430987 7.951539267216633 0 0 0
227 1 4.911637886981601 1.4379744514832957 7.944469234637227 0 0 0
70 1 1.740001749077832 4.599548562232819 7.951414864536282 0 -1 0
188 1 0.14085538510690623 3.0180144769414037 9.541700129534624 1 0 0
67 1 3.323674525010505 3.01957196641657 9.529973754290861 0 0 0
168 1 4.913379311973645 4.599383131153513 7.946145189403325 0 0 0
55 1 6.502015147006051 3.019699802895771 9.527687281732192 0 0 0
186 1 1.7404860416835164 7.762403108691824 7.945378798428316 0 0 0
222 1 0.1501671063703444 6.171431789492819 9.53638985983065 0 0 0
178 1 3.324918254295149 6.1812092452255545 9.528965957543697 0 0 0
210 1 4.904389477799622 7.759943381386137 7.939545617774443 0 0 0
98 1 6.502083800821506 6.176891283556358 9.524638795054717 0 0 0
203 1 0.15386624458408213 9.343403453828053 9.524489627437973 1 0 0
248 1 3.3140915220242957 9.347113940415225 9.526497293322935 0 0 0
209 1 6.44664844814119 9.344451147360735 9.52342171297943 0 0 0
216 1 0.14905943985552902 12.515519813659994 9.527032962316204 0 0 0
191 1 1.7371631124431175 10.931802042262136 7.9433488238739285 0 0 0
121 1 4.9088140814102115 10.930800158308037 7.939097060361794 0 0 0
218 1 3.3177643654743334 12.51539183872969 9.52125270563194 0 0 0
220 1 6.5217378796692635 12.49294414901941 9.48401162834674 0 0 0
24 1 0.14164484322433607 15.687246650778302 9.537108440097377 0 -1 -1
97 1 1.7342653620219992 14.099708807224571 7.946017509290102 0 0 0
80 1 4.913320672205875 14.096249569440529 7.93467393209403 0 -1 0
76 1 3.322611562025175 15.680902218423219 9.518601072782031 0 -1 0
107 1 6.500555734451019 15.68696621806369 9.521015798964589 0 -1 0
77 1 1.7265717624212866 1.4415281318544169 11.102901917160503 0 0 0
79 1 4.9111175070267965 1.4415245653941398 11.105947327011378 0 0 0
187 1 1.7336586784546655 4.601423791700733 11.111484184601853 0 0 0
87 1 0.1633136483837974 3.0238414201251094 12.68855755418635 0 0 0
102 1 3.3222279268476447 3.023155789727393 12.694196936318443 0 0 0
140 1 4.912630639117229 4.600853077031882 11.110183993009379 0 0 0
5 1 6.493630192109761 3.0246911686090177 12.695876253247313 0 0 -1
125 1 0.14162377870482443 6.172929007979759 12.691954535727909 1 0 0
201 1 1.7355526194506274 7.761891111023203 11.110989711496055 0 0 0
123 1 4.909396110381925 7.759784707178714 11.10908868995831 0 0 0
113 1 3.3224286927778923 6.180471292636204 12.6928494143958 0 0 0
129 1 6.505869543256521 6.176081211007846 12.687073947116852 0 0 0
231 1 0.14846724820798055 9.345714146877466 12.69092940268436 0 0 0
233 1 3.3179219527781965 9.341806328454023 12.691935563309642 0 0 0
25 1 6.523180681397295 9.306719639520747 12.66833270377845 0 0 -1
190 1 1.7262928856551822 10.93353808073841 11.111727363118625 1 0 0
208 1 0.14265206260995753 12.521424186412066 12.696151795955215 0 0 0
200 1 4.852642234548961 10.949999954187783 11.128013649714715 0 0 0
143 1 3.2800167623717678 12.539525265821837 12.716167572151784 0 0 -1
228 1 5.786698325489407 13.228360757478583 13.40750504620928 0 0 0
245 1 7.170443356193854 11.847251266755908 12.018882712711587 0 0 0
217 1 1.729769113379305 14.100257839301115 11.107604680545457 0 0 0
223 1 0.13422531442489957 15.6948036649536 12.693211079993569 1 -1 0
105 1 4.932641904082802 14.077078638522224 11.05454083894706 0 -1 0
81 1 3.3191090322677437 15.684200396508212 12.636610772843584 0 0 0
244 1 6.478972045080607 15.72612107453806 12.71411364725511 0 0 0
111 1 1.7149305113373146 1.4512611311515056 14.254034816938637 0 0 0
31 1 4.885086114404552 1.4632153860737789 14.302126652715467 0 1 0
110 1 1.7274572106529398 4.606363024600491 14.276661238447385 1 0 0
114 1 4.9065847368347795 4.6032574489963665 14.2797898379288 0 0 0
122 1 1.734198993115685 7.762830133435617 14.272916235107775 0 0 0
235 1 4.913864499316303 7.754833519514037 14.271833945432153 0 0 0
49 1 1.7315104046090553 10.928551265742461 14.274360534485453 0 0 -1
234 1 4.932737527710174 10.874719563041058 14.252954912384695 0 0 0
242 1 1.7060792817743795 14.128891490274105 14.30176237803235 0 0 0
27 1 4.3843842141988745 14.62303520679782 14.79786360332955 0 0 0
146 1 8.097795652259446 1.4417314402827888 1.614752640088615 0 1 0
8 1 11.254835092533453 1.4381052702843569 1.607733070866859 0 0 0
106 1 14.407595321421137 1.4542542736211448 1.6224533859153047 0 1 0
17 1 8.08676436152582 4.600448522358334 1.6095047960196185 0 0 0
18 1 9.682278170171728 3.0197572678203715 0.017969059198580196 0 0 0
243 1 11.25437900133953 4.6013047545241585 1.6026872144745359 0 0 0
10 1 12.837658253661116 3.022496820961738 0.04553306648915735 0 0 0
225 1 14.42512892392864 4.607167319265487 1.6016048098118052 0 1 1
28 1 9.679723740576176 6.173336681204097 0.020067615178358256 0 0 0
128 1 8.08812410630003 7.761818355959681 1.6110221217755787 0 0 0
229 1 11.261628038392992 7.762033385760432 1.6056881272728705 0 0 1
21 1 12.844933247040794 6.172308829775287 0.015654632227602612 -1 0 0
141 1 14.430722431717268 7.767857282616649 1.6062214242977617 -1 0 0
29 1 9.675078355622619 9.344949431142755 0.03850205658631889 0 0 1
139 1 12.847017010416169 9.347063579319956 0.026907274269433658 0 0 0
147 1 9.680322406389628 12.515474749671718 0.035099544543131356 0 0 0
136 1 8.085633633238734 10.932094699147841 1.6228034744599087 0 0 0
138 1 11.261229905529182 10.931227755643496 1.612150693340676 0 0 0
148 1 12.846908660761692 12.517616485330548 0.02905176629853092 0 0 0
164 1 14.430858418438403 10.933075948964595 1.6109880601305515 0 0 0
172 1 8.092595188229783 14.099204649848414 1.6156040785537986 0 0 0
109 1 9.692338707932004 15.688193225986755 0.0209204903666738 0 -1 1
224 1 11.261197375283853 14.09960776159036 1.611558519436538 0 -1 0
250 1 12.842207908536867 15.695309791945837 0.02216010786810599 0 0 1
101 1 14.424456743518018 14.102708412482645 1.6150167225744891 -1 -1 1
54 1 8.08529303127754 1.4353876486403174 4.779561078002477 0 0 0
44 1 11.25430899790717 1.4321703976914784 4.779141398554586 0 0 0
56 1 14.425489125132584 1.4309524138365328 4.785284169603495 -1 0 0
42 1 9.670768627389947 3.018583689816188 3.193485458411452 0 0 0
64 1 8.085551161846253 4.598716173522135 4.7770180934492705 0 0 0
36 1 12.82685795346275 3.0240370368189113 3.2018729502846415 -1 0 0
59 1 11.251566491332355 4.597003245607677 4.774742852694969 0 0 0
65 1 14.42485339612366 4.608819265346021 4.786404076707873 0 0 0
88 1 9.67245994113623 6.17980010802132 3.188180379210673 0 0 0
161 1 8.088975596673393 7.760933934508067 4.773201076009846 0 0 0
35 1 12.848699634606064 6.1788137033042885 3.1774048990048045 0 0 0
181 1 11.273596982038868 7.750959772965329 4.756676428508702 0 0 0
155 1 14.437009084449269 7.771888295200388 4.7739483550109 0 0 0
137 1 9.676550397712056 9.344412726292985 3.1923958265800705 0 0 0
154 1 12.84867110346529 9.348604796635147 3.18885520561645 0 0 0
112 1 9.673986123620086 12.513771139828014 3.1964233845921357 0 0 0
66 1 8.09157176511329 10.925883765846992 4.776858067050811 0 0 0
162 1 11.263872470386062 10.928656308066378 4.772880987190284 0 0 0
62 1 12.844823496970427 12.515084273652345 3.194213473244509 0 0 0
165 1 14.43456165590657 10.932710510923087 4.776374199658014 0 0 0
171 1 8.086088667378817 14.096620088290177 4.778809244745636 0 0 0
32 1 9.672462702623532 15.679211317009173 3.195024056850745 0 -1 0
103 1 12.839058074863797 15.681230896853851 3.1966069748971315 -1 -2 0
30 1 11.25861357119563 14.096416308534124 4.777811329253785 0 0 0
197 1 14.429114832125011 14.096904964382336 4.781438117567708 0 -1 0
90 1 9.673232049645522 3.0127607708051913 6.361408451682262 0 0 0
60 1 12.848702914344639 3.0030073651825187 6.3581607446280355 0 0 0
175 1 9.672670455572733 6.171419577965333 6.352729040534117 0 0 0
92 1 12.915716385828865 6.111474932437135 6.294222039539689 0 0 0
189 1 11.442731582029797 7.583334071959836 7.782572986547206 0 0 0
118 1 9.698792516893262 9.321969569139426 6.344571311016163 0 0 0
194 1 12.85849317245765 9.34813915987738 6.3498400058073665 0 0 0
184 1 9.676675217342794 12.513016490098176 6.357032670950457 0 0 0
163 1 12.851769312131884 12.517883042186186 6.356384522979119 0 0 0
69 1 9.67242746682691 15.679210784902207 6.362120830406338 0 -1 0
33 1 12.84530747000399 15.678528883753168 6.3645224697971505 0 -1 0
68 1 8.088235293166433 1.4378615467828257 7.945174796922293 0 0 0
91 1 11.260936847201155 1.4325281553139304 7.9497053477805 0 0 0
239 1 14.432244672132208 1.432322674081968 7.955387780123522 0 0 0
53 1 9.686886531683767 3.0153228656629136 9.535004435796617 0 -1 0
149 1 8.090667837934145 4.59350179174836 7.942516028004746 0 0 -1
94 1 12.84918550575037 3.011271312932712 9.51232007574678 0 0 0
99 1 11.274032201252174 4.578328360358737 7.937712429784823 0 0 0
206 1 14.43753436210704 4.595642894667467 7.957722690267843 0 0 0
104 1 9.70623173831422 6.152071749980889 9.511666106775742 0 0 0
241 1 14.428636570272257 14.109417668681502 14.278746607077256 0 0 0
183 1 12.862169665903071 6.154076029863154 9.54269259909118 0 0 1
43 1 14.45508909188788 7.748235786826016 7.932846292203887 0 0 0
119 1 9.989700642856054 9.031400553076825 9.205709494150678 0 0 0
73 1 12.867423319101805 9.320357501749582 9.502351332325084 0 0 0
221 1 9.678584508403622 12.567526243197552 9.52255390345235 0 0 0
193 1 8.114535167725542 10.903189811550462 7.92054024724006 0 0 0
213 1 12.851580944677778 12.515052871534692 9.524651493912483 0 0 0
214 1 11.278131296236111 10.953427584947512 7.927419972561365 0 0 0
195 1 14.438672870195914 10.92891721466662 7.9403728641684355 0 0 0
198 1 8.089227372048825 14.10236521012212 7.940797991884052 0 0 0
39 1 9.683010169037134 15.699239128439533 9.53415373641816 0 0 0
84 1 12.847244654532489 15.68997530419098 9.53947531846524 0 -1 0
199 1 11.266257933726552 14.107143006486533 7.941389175824752 0 0 0
16 1 14.432138531525519 14.09842545545188 7.947925932499368 0 0 0
7 1 8.090611304871741 1.4465293289440107 11.110702059690421 0 0 -1
120 1 11.28125763568239 1.4584074635279707 11.13079803692633 0 0 0
58 1 14.411218837728253 1.4560415729889133 11.132080421244797 0 1 0
74 1 8.097061756851943 4.598078548044495 11.104396548820723 0 0 0
20 1 9.655078703377084 3.0196073358757047 12.690958559400144 0 0 0
93 1 11.284650843702261 4.570772724138611 11.129267212208568 0 0 0
96 1 14.41557637769578 4.575694418487835 11.133053027760706 -1 0 0
124 1 9.687594312449379 6.165957894391716 12.689333628404098 0 0 0
151 1 8.117293795852808 7.737753886680927 11.081599354894959 1 0 0
100 1 12.850989279532461 6.192843048538172 12.693918556240556 0 0 0
204 1 11.276818788995987 7.740678418095435 11.123937175753934 0 0 0
89 1 14.438922262337062 7.754285935182139 11.107267054923485 0 0 0
237 1 9.681486071270927 9.338409416209677 12.742147494773143 0 0 0
230 1 12.851151144474029 9.344571553337792 12.688606715273883 0 0 0
211 1 8.573845236112614 10.443942214649148 10.624426850759434 0 0 0
247 1 9.716530613567134 12.492224669811943 12.666327273838741 0 0 0
205 1 11.28483936181984 10.901709506161732 11.078812094311393 0 0 0
6 1 12.851662969615946 12.508744187408585 12.686307826273634 0 0 0
215 1 14.435232491363063 10.926182902237464 11.103823121936918 0 0 0
50 1 9.690696761369846 15.697220365924096 12.691181578058542 0 0 0
82 1 8.073341073724878 14.160392114238613 11.127203458083283 0 -1 0
249 1 11.265364842613057 14.106316402831078 11.108027883096865 0 0 0
130 1 12.846969556190095 15.664865633530209 12.691909382132833 0 0 0
108 1 14.432071699620302 14.103056217468344 11.110196155256974 0 0 0
219 1 8.096071646801406 1.4411286497575395 14.274137263794703 0 0 0
85 1 11.280487825195733 1.4592263694923782 14.252158170320278 0 0 0
23 1 14.403348080096727 1.4629158279264636 14.253980371134071 0 0 0
153 1 8.091207873603462 4.600803368161699 14.27283933594182 0 0 0
117 1 11.27770927075764 4.578389773498432 14.251123784676158 0 0 0
95 1 14.407500196576557 4.5833302650320675 14.249750897684057 0 0 0
202 1 8.089404237574655 7.75736612458413 14.274988460027272 0 0 0
173 1 11.26534727438743 7.752982585430027 14.27940731714387 0 0 0
226 1 14.433031387012862 7.76055191206375 14.271894366973328 -1 0 0
236 1 8.070695173118272 10.947486695752726 14.330356093826088 0 0 0
238 1 11.265016970089368 10.929906017799073 14.275721958458057 0 0 0
240 1 14.432150351013199 10.932034294262555 14.273007881719762 0 0 0
246 1 8.147029421761607 14.076966737569306 14.2484872659905 0 0 0
115 1 11.26999222053995 14.101363515650302 14.270864615948787 0 0 0
179 1 8.063864569222929 7.746382438742587 7.930207041785158 0 0 0

Velocities

11 0 0 0
4 0 0 0
3 0 0 0
180 0 0 0
142 0 0 0
14 0 0 0
13 0 0 0
15 0 0 0
131 0 0 0
12 0 0 0
132 0 0 0
127 0 0 0
135 0 0 0
207 0 0 0
133 0 0 0
158 0 0 0
150 0 0 0
232 0 0 0
134 0 0 0
46 0 0 0
1 0 0 0
83 0 0 0
144 0 0 0
52 0 0 0
185 0 0 0
37 0 0 0
38 0 0 0
116 0 0 0
152 0 0 0
40 0 0 0
126 0 0 0
157 0 0 0
47 0 0 0
212 0 0 0
48 0 0 0
156 0 0 0
22 0 0 0
160 0 0 0
166 0 0 0
176 0 0 0
170 0 0 0
86 0 0 0
45 0 0 0
26 0 0 0
167 0 0 0
169 0 0 0
192 0 0 0
159 0 0 0
71 0 0 0
57 0 0 0
41 0 0 0
75 0 0 0
72 0 0 0
63 0 0 0
61 0 0 0
177 0 0 0
19 0 0 0
174 0 0 0
182 0 0 0
9 0 0 0
78 0 0 0
196 0 0 0
34 0 0 0
145 0 0 0
2 0 0 0
51 0 0 0
227 0 0 0
70 0 0 0
188 0 0 0
67 0 0 0
168 0 0 0
55 0 0 0
186 0 0 0
222 0 0 0
178 0 0 0
210 0 0 0
98 0 0 0
203 0 0 0
248 0 0 0
209 0 0 0
216 0 0 0
191 0 0 0
121 0 0 0
218 0 0 0
220 0 0 0
24 0 0 0
97 0 0 0
80 0 0 0
76 0 0 0
107 0 0 0
77 0 0 0
79 0 0 0
187 0 0 0
87 0 0 0
102 0 0 0
140 0 0 0
5 0 0 0
125 0 0 0
201 0 0 0
123 0 0 0
113 0 0 0
129 0 0 0
231 0 0 0
233 0 0 0
25 0 0 0
190 0 0 0
208 0 0 0
200 0 0 0
143 0 0 0
228 0 0 0
245 0 0 0
217 0 0 0
223 0 0 0
105 0 0 0
81 0 0 0
244 0 0 0
111 0 0 0
31 0 0 0
110 0 0 0
114 0 0 0
122 0 0 0
235 0 0 0
49 0 0 0
234 0 0 0
242 0 0 0
27 0 0 0
146 0 0 0
8 0 0 0
106 0 0 0
17 0 0 0
18 0 0 0
243 0 0 0
10 0 0 0
225 0 0 0
28 0 0 0
128 0 0 0
229 0 0 0
21 0 0 0
141 0 0 0
29 0 0 0
139 0 0 0
147 0 0 0
136 0 0 0
138 0 0 0
148 0 0 0
164 0 0 0
172 0 0 0
109 0 0 0
224 0 0 0
250 0 0 0
101 0 0 0
54 0 0 0
44 0 0 0
56 0 0 0
42 0 0 0
64 0 0 0
36 0 0 0
59 0 0 0
65 0 0 0
88 0 0 0
161 0 0 0
35 0 0 0
181 0 0 0
155 0 0 0
137 0 0 0
154 0 0 0
112 0 0 0
66 0 0 0
162 0 0 0
62 0 0 0
165 0 0 0
171 0 0 0
32 0 0 0
103 0 0 0
30 0 0 0
197 0 0 0
90 0 0 0
60 0 0 0
175 0 0 0
92 0 0 0
189 0 0 0
118 0 0 0
194 0 0 0
184 0 0 0
163 0 0 0
69 0 0 0
33 0 0 0
68 0 0 0
91 0 0 0
239 0 0 0
53 0 0 0
149 0 0 0
94 0 0 0
99 0 0 0
206 0 0 0
104 0 0 0
241 0 0 0
183 0 0 0
43 0 0 0
119 0 0 0
73 0 0 0
221 0 0 0
193 0 0 0
213 0 0 0
214 0 0 0
195 0 0 0
198 0 0 0
39 0 0 0
84 0 0 0
199 0 0 0
16 0 0 0
7 0 0 0
120 0 0 0
58 0 0 0
74 0 0 0
20 0 0 0
93 0 0 0
96 0 0 0
124 0 0 0
151 0 0 0
100 0 0 0
204 0 0 0
89 0 0 0
237 0 0 0
230 0 0 0
211 0 0 0
247 0 0 0
205 0 0 0
6 0 0 0
215 0 0 0
50 0 0 0
82 0 0 0
249 0 0 0
130 0 0 0
108 0 0 0
219 0 0 0
85 0 0 0
23 0 0 0
153 0 0 0
117 0 0 0
95 0 0 0
202 0 0 0
173 0 0 0
226 0 0 0
236 0 0 0
238 0 0 0
240 0 0 0
246 0 0 0
115 0 0 0
179 0 0 0
