LAMMPS data file via write_data, version 22 Jul 2025, timestep = 30116, units = metal

250 atoms
1 atom types

-0.03816467468256808 15.86414267468259 xlo xhi
0 15.825978000000001 ylo yhi
0 15.825978000000001 zlo zhi

Masses

1 183.841

Atoms # atomic

11 1 1.7690827538100327 1.3930533134089018 1.4728788791279483 0 0 0
4 1 4.952117439319109 1.4020760808568138 1.4899496399482637 0 0 0
116 1 1.7939547177523987 4.598040419166911 1.4534731929373952 0 0 0
14 1 4.957424861558411 4.568295522139492 1.4925716201241073 0 0 0
126 1 1.7559009544313267 7.755788573565949 1.4920558828209314 0 0 0
132 1 4.934781316016704 7.725543972296636 1.5288546924798176 0 0 0
46 1 1.785135839444976 10.899516346409804 1.4964841441903456 -1 0 0
134 1 4.937248010266348 10.915335793945193 1.5229445518819473 0 0 0
142 1 1.7814132297901513 14.02960824200099 1.4673630591444748 0 0 0
83 1 4.951528454057554 14.06716390934137 1.495899667081886 0 0 0
52 1 1.7619405683865184 1.4158894137622522 4.644515966849792 0 0 0
58 1 4.953229175648163 1.4003174877844997 4.653805308395926 0 0 0
37 1 1.7424321783514494 4.5431185215944465 4.626263589830132 0 0 0
38 1 0.2659019476921357 3.0686394077754175 2.938161983482016 0 0 0
39 1 4.955846282458173 4.5664792495116195 4.653351084210607 0 0 0
185 1 3.3732107354962793 2.9848116888001943 3.0663807639450398 0 1 0
40 1 6.543226598466103 2.9828134864152185 3.075507595166385 0 0 0
180 1 0.18023896425496558 6.174044752332252 3.062665685306416 0 0 0
47 1 3.3494325311005824 6.146878736854471 3.077562026274948 0 0 0
48 1 6.542137514083854 6.148985405054468 3.080791859523894 0 0 0
151 1 1.758584596676217 7.752086600122425 4.642818261670139 1 0 0
156 1 0.15893441883793702 9.343183381497676 3.0510731413417247 0 0 0
152 1 4.9441945268495235 7.732861214073446 4.651670191396478 0 0 0
22 1 3.347559846506711 9.322507176714655 3.0837671566505884 0 0 0
160 1 6.540975391112573 9.319215844013135 3.093707903352599 0 0 0
166 1 0.15892005730322187 12.45212808522144 3.053195367977688 0 0 0
176 1 1.7491470838789829 10.91043264712173 4.653686055110039 0 0 0
170 1 4.943444124373115 10.905449927158227 4.657191088012764 0 0 0
232 1 3.349042976638419 12.488009226650949 3.0834603388203545 0 0 0
45 1 6.540744834474367 12.488601986799944 3.0837957784563605 0 0 0
26 1 0.2808876020055494 15.544320865939362 3.0200367635384153 0 -1 0
167 1 1.7628355235220645 14.03938312579395 4.658856652039444 0 0 0
169 1 3.3655666426604274 15.643759055217968 3.0707701696138034 0 0 0
192 1 4.947272876708565 14.066070115408863 4.658981717887858 0 0 0
159 1 6.54057468932246 15.647133682294712 3.076155956563809 0 -1 0
51 1 1.7271663498783882 1.354137980424041 7.803281670796599 0 0 0
227 1 4.950011616892657 1.396145201187606 7.820653515187496 0 0 0
71 1 1.1501472325308968 3.959502026640489 7.183727181552124 0 0 0
34 1 6.534419323940058 15.644341760246158 6.241291924369502 0 -1 0
57 1 3.41961589521169 2.9929070395012167 6.2496079081730915 0 0 0
72 1 4.997452405290159 4.592210376628244 7.8477095958674825 0 0 0
41 1 6.551274625504775 2.9843282759724694 6.240202273545362 0 0 0
186 1 1.7878153009230908 7.785186450304473 7.843145509502888 0 0 0
75 1 0.1832419505149952 6.222237457016715 6.24002871888105 1 0 0
62 1 3.32520273263135 6.124975297573058 6.176065256626069 0 0 0
178 1 4.912826412159858 7.700848070305486 7.747701924668011 0 0 0
158 1 6.540617672518177 9.31879271657602 0.06160395935006952 0 0 0
63 1 6.544725295076129 6.149955606569878 6.232873963249037 0 0 0
61 1 0.18086768060171263 9.332030458615245 6.229385051615867 0 0 0
177 1 3.351509441669785 9.325787544736256 6.230896686180445 0 0 0
210 1 6.540822468971868 9.31930246947748 6.221510124635606 0 0 0
191 1 1.7526470727129544 10.921130977866072 7.817876194674719 0 0 0
174 1 0.14850844586710035 12.502272281170148 6.242779964864265 1 0 0
121 1 4.919607531174773 10.92858812008765 7.793454336361044 0 0 0
182 1 3.343898542634579 12.487307981824314 6.232291404150973 0 0 0
9 1 6.538198716000826 12.485472465659818 6.234239672579988 0 -1 0
97 1 1.7847665343697672 14.057596384140611 7.814690547601537 0 0 0
78 1 0.16726865647779868 15.590055736626704 6.210333443322763 1 -1 0
196 1 3.3505281689704702 15.64924472328118 6.228811738144978 0 0 0
80 1 4.941307942283595 14.064837081140018 7.822624166048923 0 -1 0
86 1 0.21402551892389235 3.0159924824754816 9.474132651065178 0 0 0
35 1 3.3331413436131845 2.9320980489514628 9.374998930277881 0 0 0
90 1 6.544638970683072 2.981395647462259 9.402393700740616 0 0 0
222 1 0.13123026834387563 6.13045019555213 9.375213430282846 0 0 0
187 1 3.9463895088034273 6.745822674544943 10.020818629857496 0 0 0
98 1 6.572057414044187 6.178841216281091 9.420892594586359 0 0 0
190 1 0.17631303934718526 9.327942087528342 9.402079663571731 1 0 0
208 1 3.377756658240443 9.353793537375882 9.416369177956113 0 0 0
179 1 6.539971223930675 9.319010535081752 9.136783754277703 0 0 0
216 1 0.1656306297138823 12.502715204770913 9.384631074880959 0 0 0
218 1 3.3456318711685746 12.486653097422941 9.408464498328993 0 0 0
220 1 6.507698831508753 12.456607876506899 9.423039458972404 0 0 0
24 1 0.1790710393443512 15.59287031169901 9.41266202152267 0 -1 -1
76 1 3.3518733149873907 15.63747991111405 9.401751787812842 0 -1 0
68 1 6.535766794082468 15.650096364325005 9.403875664903106 0 -1 0
77 1 1.76210319905863 1.3890508006811295 10.982883206545006 0 0 0
67 1 4.946765183095102 1.3935242311057818 10.985348047945461 0 0 0
87 1 1.7978728814863705 4.599443967005685 11.039001955226386 0 0 0
111 1 0.18246197404941508 2.9907861789832517 12.570100738195316 0 0 0
66 1 4.945361669470798 4.504786467270799 10.980107994750211 0 0 0
102 1 3.3588925053358802 2.9792027679634043 12.569305449106993 0 0 0
140 1 6.541721795222918 2.982674433413167 12.574152194397936 0 0 0
125 1 0.17063533542948514 6.158780766787387 12.57288264158901 1 0 0
201 1 1.6992400285922307 7.733649620722742 10.980558892437044 0 0 0
157 1 3.3821667632662726 6.183654935158754 12.598806533615281 0 0 0
129 1 6.518418427147378 6.156810568434374 12.58711246271442 0 0 0
231 1 0.17233251339487096 9.323451603618404 12.577521815234427 0 0 0
123 1 5.455817316004446 8.239713508105927 11.27302852059934 0 0 0
233 1 3.355323064856646 9.294199117370855 12.58353407398772 0 0 0
25 1 6.541952056044642 9.323775040178262 13.253609448921072 0 0 -1
211 1 7.623349249313884 10.40874755132007 11.268146916884003 0 0 0
243 1 1.757202940124815 10.903469698523017 10.988139759333915 0 0 0
241 1 0.18074022584176597 12.480041715363583 12.571701983874537 1 0 0
207 1 3.3428668510821167 12.492777640806864 12.57172403789954 0 0 0
209 1 4.923740822830833 10.921793903022674 11.029475206242115 0 0 0
245 1 6.559741454223583 12.483722532113116 12.589974005314948 0 0 0
217 1 1.7638257191615772 14.057578854451945 10.98366557562809 0 0 0
223 1 0.18238702420539188 15.643344822245961 12.567360712186717 1 -1 0
79 1 3.3569516255657383 15.643737773133267 12.568681704564147 0 -1 0
105 1 4.950484082742948 14.065879881151123 10.993888391497924 0 -1 0
244 1 6.537415701255304 15.652395020063416 12.575142549282205 0 0 0
168 1 1.7734790380675296 1.4014140106316224 14.14295004830828 0 0 0
5 1 4.950430911446105 1.4023298364655645 14.15214138887559 0 0 -1
113 1 1.7777904994653366 4.582300703459824 14.143526843516968 0 0 0
110 1 0.19654939242198585 3.0048599470222506 15.691639274002194 1 0 0
114 1 4.948922281528463 4.557954809814588 14.15984208328386 0 0 0
13 1 3.362192761662774 2.9802483279174887 15.732580592953953 0 0 -1
15 1 6.540934837186189 2.9850300099453215 15.737253798668256 0 0 -1
12 1 0.17171968925563869 6.164017778086435 15.7323040965397 0 0 -1
122 1 1.7440122700790743 7.746739762211482 14.168606711233277 0 0 0
235 1 4.872012754055826 7.667402481019026 14.279856051181586 0 0 0
144 1 6.540040586520445 15.648800254144202 15.738116988239643 0 0 -1
135 1 6.5479554368479835 6.155777632407622 15.750474507711155 0 0 -1
131 1 0.1556719303129935 9.34298663796902 15.758351775112551 0 0 -1
133 1 3.3502527375521676 9.326119058290931 15.75293256498379 0 0 -1
27 1 4.9484188785183 14.072308690206489 14.156771253648817 0 0 0
49 1 0.15713726799086547 12.456396649268934 15.752664008616494 0 0 -1
143 1 1.7473899755616682 10.89943863826713 14.1655419107352 0 0 -1
234 1 3.3338392227603713 12.503201820550172 15.756375389532938 0 0 0
203 1 4.851975488912831 10.986527193077931 14.212950336005145 0 0 0
145 1 6.532899037193305 12.481721868590263 15.750905774113228 0 0 -1
242 1 1.7651274038589126 14.052235399668012 14.150397010859962 0 0 0
1 1 0.1976165374926343 15.625974265288885 15.702257079906742 0 -1 -1
3 1 3.3622937307071297 15.647043759493847 15.731873174827966 0 -1 -1
127 1 3.337304999784537 6.136496413391952 15.766384909596324 0 0 -1
70 1 2.554576652324958 5.3494061252997405 8.596579760324747 0 -1 0
6 1 8.129574302705114 1.4028217819410815 1.4906390597605084 0 0 0
8 1 11.310429832334068 1.4107413123980586 1.470178351255425 0 0 0
10 1 14.49158891602918 1.4076065348950466 1.3054666117242926 0 0 0
17 1 8.128216374478008 4.567045616339205 1.494639723457622 0 0 0
18 1 11.290062093796697 4.596449911164038 1.465077149142738 0 0 0
20 1 14.484175108066983 4.5693004385007425 1.4722022106413752 0 0 0
128 1 8.147462830431698 7.724456032147084 1.5210262118564306 0 0 0
229 1 11.327885826273553 7.751193864609816 1.4938796926985425 0 0 1
130 1 14.491480583808052 7.724740390831152 1.4872717184570918 0 0 0
136 1 8.143244205936059 10.914542873625328 1.5291528382986106 0 0 0
137 1 11.292419622627973 10.892837200718477 1.4903002157287626 0 0 0
112 1 8.126633915126838 14.065034093131187 1.4939188543849413 0 0 0
148 1 11.299771087426738 14.02812390319938 1.455775316298845 0 0 0
150 1 14.50139791174382 14.085575159323723 1.4706018055801868 0 0 0
54 1 8.133145661058226 1.3977015737423142 4.657525475416393 0 0 0
44 1 11.314421047332454 1.3751964445494285 4.637892257107215 0 0 0
103 1 14.496717078922453 1.4029810454111764 3.9262168782462616 -1 -1 0
42 1 9.712218870724836 2.984502148912421 3.069726321838161 0 0 0
64 1 8.132645532967915 4.566343340118577 4.657137715142962 0 0 0
200 1 11.300386906184494 4.5831982731480965 4.652538794880496 0 0 0
36 1 12.802802021461899 3.0804747276209525 3.0117862257799297 -1 0 0
65 1 14.519523382071078 4.56674168082967 4.637236857158989 0 0 0
88 1 9.727283350200965 6.151859869365947 3.078818297336886 0 0 0
161 1 8.137024232038574 7.733434560692881 4.656533350537172 0 0 0
50 1 12.90432927573542 6.167937221075787 3.0679703506910756 0 0 0
154 1 11.322671910071149 7.74410068370628 4.645894267542238 0 0 0
155 1 14.49144888148139 7.752274838635133 4.637407203580961 0 0 0
55 1 9.732967411299507 9.317803545679569 3.0814438781032627 0 0 0
164 1 12.924931545219906 9.339700502997962 3.0503488518943778 0 0 0
172 1 9.739213828542162 12.492144941228789 3.081547577349226 0 0 0
19 1 8.14053316846858 10.906457126852263 4.652867276481305 0 0 0
162 1 11.330567622800897 10.895549397857733 4.641354329738614 0 0 0
138 1 12.924222843783447 12.439598034501502 3.0364445300808174 0 0 0
165 1 14.500041358392233 10.899693378674991 4.6683194940821835 0 0 0
32 1 9.712278852387023 15.641069102923892 3.068409801199643 0 -1 0
171 1 8.133435957334388 14.066390635410329 4.65847514982993 0 0 0
224 1 12.816706125167366 15.56648021099421 2.9385900881300557 0 -1 0
30 1 11.361693066561585 14.078014084964224 4.6287311379629115 0 0 0
197 1 14.460987600540182 14.057688382717751 4.598935789475151 0 -1 0
31 1 8.132066708377506 1.4027579227866875 7.820701707835009 0 0 0
91 1 11.344828175223284 1.4218079685150475 7.805609657562825 0 0 0
56 1 15.561285025581006 2.450446771433769 5.932858384510466 -1 0 0
33 1 13.428610169670195 0.34983581818308107 5.921154593999888 0 0 0
59 1 9.723993808989842 2.975731049019866 6.232187749060073 0 0 0
92 1 8.14059306677734 4.568091830732239 7.821837333347745 0 0 0
60 1 12.881010065983835 3.0085811158680524 6.190676897198304 0 0 0
74 1 11.306898035014791 4.574197557980682 7.814798404513185 0 0 0
206 1 14.455188680216107 4.547411324056724 7.803716889777447 0 0 0
175 1 8.159558546302515 7.710798175535373 7.792292822351646 0 0 0
181 1 9.730716862837259 6.148677108553598 6.231035784283376 0 0 0
43 1 12.908614350179214 6.157122625163604 6.225350565591798 0 0 0
189 1 11.316438867250827 7.732263410521974 7.818199269138272 0 0 0
73 1 14.487601601966302 7.739502884702702 7.817319575772483 0 0 0
118 1 9.7313438091221 9.318348718226002 6.230517749044746 0 0 0
194 1 12.903497595462818 9.31066399418676 6.227433847777637 0 0 0
184 1 9.76974535559096 12.51339086195521 6.182430229360117 0 0 0
193 1 8.168791703002784 10.936516634975268 7.746895275616181 0 0 0
214 1 11.307481625824272 10.868528233864462 7.840830888074528 0 0 0
163 1 12.916595340302532 12.408483944808253 6.23300644645402 0 0 0
195 1 14.499280027487726 10.870378997462206 7.817530574967222 0 0 0
198 1 8.088120987355872 14.038705816097707 7.8512511130273595 0 0 0
69 1 9.690198058420751 15.621037930887645 6.2623997915728005 0 -1 0
16 1 11.981066591831421 14.654958413085978 7.190943796203014 0 0 0
53 1 9.72095961177949 2.9935088535896397 9.402290187437908 0 -1 0
94 1 12.870419661181314 3.0143016015143944 9.433028413108254 0 0 0
99 1 9.727427039452547 6.151825193830894 9.407801369089137 0 0 0
100 1 12.892752646861785 6.158225856358512 9.40174149729856 0 0 0
119 1 9.70383850570629 9.292907621516845 9.414106959920527 0 0 0
205 1 12.908137346352813 9.322748254687383 9.399461532979782 0 0 0
199 1 10.541863710159923 13.297413662542409 8.598491651745526 0 0 0
221 1 9.141012301241568 11.896759150959888 10.014066523775362 0 0 0
213 1 12.992878441879874 12.537744374444562 9.346888610208778 0 0 0
82 1 9.749655464881354 15.697564722563552 9.381687781668942 0 -1 0
84 1 12.877654681810615 15.600777205137392 9.479981484296761 0 -1 0
107 1 8.131541659609077 1.4123757821472958 10.986944711985064 0 0 0
120 1 11.313077871207424 1.4057052592695498 10.99143475956735 0 0 0
188 1 14.492999485047232 1.3972259083026177 10.995152559543197 0 0 0
81 1 8.126396813964186 4.570877755562027 10.994255245481657 0 0 0
106 1 9.720066368673795 2.988596973699798 12.568329573776468 0 0 0
23 1 12.899437789739325 2.991715704040578 12.56717273873502 0 0 0
93 1 11.304546191885319 4.5802549062270685 10.99206518778329 0 0 0
96 1 14.487091116524242 4.573245432108491 10.989870377494919 -1 0 0
104 1 8.153715921953884 7.722156326823028 11.02763197442438 0 0 0
124 1 9.734582977250296 6.150362673577129 12.571752686858453 0 0 0
183 1 12.902869176997783 6.161067126798325 12.56927274071119 0 0 1
204 1 11.315151738071389 7.7497757251357235 10.99349682810964 0 0 0
89 1 14.481913417752933 7.741118883667701 10.985370947368198 0 0 0
237 1 9.725397109998044 9.355897921137235 12.579391707714581 0 0 0
230 1 12.908118540478274 9.32283781939315 12.575605019564355 0 0 0
247 1 9.700392088676933 12.455740213063986 12.5959317747245 0 0 0
212 1 11.398081661227128 10.925592111768347 10.96509830712822 0 0 0
240 1 12.910887289048112 12.482994618012224 12.573889837716315 0 0 0
215 1 14.502145666613318 10.913257320048876 10.97297757790327 0 0 0
248 1 8.134611272412496 14.129112806153733 10.983487817089205 0 0 0
7 1 9.722304033245157 15.650946412885729 12.574264163388092 0 -1 -1
249 1 11.292722141097341 14.033875803025532 11.038757520180441 0 0 0
225 1 12.898185986381323 15.644117720221168 12.577787190521674 0 0 0
108 1 14.497421964518484 14.061225141860184 11.026740914049197 0 0 0
219 1 8.129655732434065 1.4053167312899344 14.152861676904294 0 0 0
85 1 11.306888279687843 1.4055364519322429 14.144845184644398 0 0 0
2 1 14.492296787477489 1.4032062511450905 14.13365084473312 0 0 0
153 1 8.130184495700735 4.564753185073909 14.155349501984935 0 0 0
146 1 9.71601408682244 2.986239882213958 15.730122583853444 0 1 -1
228 1 12.883805881131385 3.0066047561624654 15.698813612290902 0 0 0
117 1 11.307518348493293 4.579621721056612 14.142779539194642 0 0 0
95 1 14.490273067960265 4.578941577223473 14.144316267236583 0 0 0
202 1 8.225454867234035 7.653944352737866 14.210705367558115 0 0 0
28 1 9.743812053287076 6.137743712508497 15.756878849933045 0 0 -1
21 1 12.9048781027061 6.16685452807737 15.729531223346353 -1 0 -1
173 1 11.331002372130332 7.750928596448611 14.161694029020833 0 0 0
226 1 14.490065595533265 7.7523214601705766 14.16201114724636 -1 0 0
29 1 9.730650131655157 9.31213506724142 15.750325679956466 0 0 0
139 1 12.9254494618453 9.342300759382962 15.75729478883121 0 0 -1
236 1 8.21303762981109 10.975079948516896 14.281324377304703 0 0 0
147 1 9.748276540499639 12.504573205102657 15.765033613492259 0 0 -1
238 1 11.340242552351187 10.903823702019372 14.167239373746101 0 0 0
149 1 12.930331936899975 12.458358297302956 15.754780401866679 0 0 -1
141 1 14.49354830935756 10.901191511615373 14.133480221222039 -1 0 -1
246 1 8.132852152815218 14.077745815524285 14.161666491738613 0 0 0
109 1 9.720740695383519 15.651623176054793 15.735126380887637 0 -1 0
115 1 11.311461529219645 14.047604696387907 14.15314488116171 0 0 0
250 1 12.885788923668533 15.626908619911182 15.69483786952748 0 0 0
101 1 14.494269527898895 14.050077176831477 14.160750689094746 -1 -1 0
239 1 14.484010929003164 1.414422655999196 8.08736844856178 0 0 0

Velocities

11 0 0 0
4 0 0 0
116 0 0 0
14 0 0 0
126 0 0 0
132 0 0 0
46 0 0 0
134 0 0 0
142 0 0 0
83 0 0 0
52 0 0 0
58 0 0 0
37 0 0 0
38 0 0 0
39 0 0 0
185 0 0 0
40 0 0 0
180 0 0 0
47 0 0 0
48 0 0 0
151 0 0 0
156 0 0 0
152 0 0 0
22 0 0 0
160 0 0 0
166 0 0 0
176 0 0 0
170 0 0 0
232 0 0 0
45 0 0 0
26 0 0 0
167 0 0 0
169 0 0 0
192 0 0 0
159 0 0 0
51 0 0 0
227 0 0 0
71 0 0 0
34 0 0 0
57 0 0 0
72 0 0 0
41 0 0 0
186 0 0 0
75 0 0 0
62 0 0 0
178 0 0 0
158 0 0 0
63 0 0 0
61 0 0 0
177 0 0 0
210 0 0 0
191 0 0 0
174 0 0 0
121 0 0 0
182 0 0 0
9 0 0 0
97 0 0 0
78 0 0 0
196 0 0 0
80 0 0 0
86 0 0 0
35 0 0 0
90 0 0 0
222 0 0 0
187 0 0 0
98 0 0 0
190 0 0 0
208 0 0 0
179 0 0 0
216 0 0 0
218 0 0 0
220 0 0 0
24 0 0 0
76 0 0 0
68 0 0 0
77 0 0 0
67 0 0 0
87 0 0 0
111 0 0 0
66 0 0 0
102 0 0 0
140 0 0 0
125 0 0 0
201 0 0 0
157 0 0 0
129 0 0 0
231 0 0 0
123 0 0 0
233 0 0 0
25 0 0 0
211 0 0 0
243 0 0 0
241 0 0 0
207 0 0 0
209 0 0 0
245 0 0 0
217 0 0 0
223 0 0 0
79 0 0 0
105 0 0 0
244 0 0 0
168 0 0 0
5 0 0 0
113 0 0 0
110 0 0 0
114 0 0 0
13 0 0 0
15 0 0 0
12 0 0 0
122 0 0 0
235 0 0 0
144 0 0 0
135 0 0 0
131 0 0 0
133 0 0 0
27 0 0 0
49 0 0 0
143 0 0 0
234 0 0 0
203 0 0 0
145 0 0 0
242 0 0 0
1 0 0 0
3 0 0 0
127 0 0 0
70 0 0 0
6 0 0 0
8 0 0 0
10 0 0 0
17 0 0 0
18 0 0 0
20 0 0 0
128 0 0 0
229 0 0 0
130 0 0 0
136 0 0 0
137 0 0 0
112 0 0 0
148 0 0 0
150 0 0 0
54 0 0 0
44 0 0 0
103 0 0 0
42 0 0 0
64 0 0 0
200 0 0 0
36 0 0 0
65 0 0 0
88 0 0 0
161 0 0 0
50 0 0 0
154 0 0 0
155 0 0 0
55 0 0 0
164 0 0 0
172 0 0 0
19 0 0 0
162 0 0 0
138 0 0 0
165 0 0 0
32 0 0 0
171 0 0 0
224 0 0 0
30 0 0 0
197 0 0 0
31 0 0 0
91 0 0 0
56 0 0 0
33 0 0 0
59 0 0 0
92 0 0 0
60 0 0 0
74 0 0 0
206 0 0 0
175 0 0 0
181 0 0 0
43 0 0 0
189 0 0 0
73 0 0 0
118 0 0 0
194 0 0 0
184 0 0 0
193 0 0 0
214 0 0 0
163 0 0 0
195 0 0 0
198 0 0 0
69 0 0 0
16 0 0 0
53 0 0 0
94 0 0 0
99 0 0 0
100 0 0 0
119 0 0 0
205 0 0 0
199 0 0 0
221 0 0 0
213 0 0 0
82 0 0 0
84 0 0 0
107 0 0 0
120 0 0 0
188 0 0 0
81 0 0 0
106 0 0 0
23 0 0 0
93 0 0 0
96 0 0 0
104 0 0 0
124 0 0 0
183 0 0 0
204 0 0 0
89 0 0 0
237 0 0 0
230 0 0 0
247 0 0 0
212 0 0 0
240 0 0 0
215 0 0 0
248 0 0 0
7 0 0 0
249 0 0 0
225 0 0 0
108 0 0 0
219 0 0 0
85 0 0 0
2 0 0 0
153 0 0 0
146 0 0 0
228 0 0 0
117 0 0 0
95 0 0 0
202 0 0 0
28 0 0 0
21 0 0 0
173 0 0 0
226 0 0 0
29 0 0 0
139 0 0 0
236 0 0 0
147 0 0 0
238 0 0 0
149 0 0 0
141 0 0 0
246 0 0 0
109 0 0 0
115 0 0 0
250 0 0 0
101 0 0 0
239 0 0 0
