LAMMPS data file via write_data, version 22 Jul 2025, timestep = 45262, units = metal

250 atoms
1 atom types

-0.021734341101270795 15.847712341101333 xlo xhi
0 15.825978000000001 ylo yhi
0 15.825978000000001 zlo zhi

Masses

1 183.841

Atoms # atomic

11 1 1.7230357212455003 1.4469495609353893 1.5892355720661164 0 0 0
4 1 4.896335975627462 1.4324746901044347 1.585832796733476 0 0 0
180 1 1.7151206512716168 4.609568909528644 1.5903236817578952 0 0 0
158 1 6.490922973145284 9.342699094500295 0.005919970892993819 0 0 0
14 1 4.896929647977906 4.5941758050263655 1.585318684157415 0 0 0
78 1 0.13506355888558397 15.673907623712518 6.331643914181758 1 -1 0
15 1 6.482366489219172 3.0163990625549744 0.003385748926658938 0 0 0
131 1 1.7733073518810396 7.748972294416048 1.618528213963541 0 0 0
12 1 0.1226481600485208 6.2055514816457675 0.03424940479080303 1 0 -1
132 1 4.916504834310356 7.7482476348938105 1.5813254821902556 0 0 0
144 1 6.483167655415672 15.676571348467961 0.00431970736476615 0 0 0
127 1 3.3082365993900087 6.178472473631536 0.00782832267349072 0 0 0
141 1 0.1396855203798699 9.29040339249254 0.061968287863455984 0 0 0
133 1 3.312887181784428 9.343974481918899 0.007861300180656615 0 0 0
207 1 1.925929451951199 10.593285396851611 1.9128430871008304 0 0 0
150 1 0.6155862671474165 12.064004849135326 0.43822191053054216 1 0 0
134 1 4.923322286443066 10.905730637273454 1.6080473553652856 0 0 0
142 1 3.3362687706156398 12.481657337406459 0.0322635517028826 0 0 0
9 1 6.485590049425017 12.5137658046716 6.3362753900160245 0 -1 0
46 1 1.7297555590862093 14.146429788254542 1.5972343058131329 -1 0 0
168 1 4.872830140379382 4.607511818558558 7.908139651163545 0 0 0
83 1 4.900346453299746 14.090443371451508 1.5910822446239061 0 0 0
3 1 3.3142936539414194 15.679324530141285 0.00527993868458496 0 -1 0
196 1 3.3061763156816406 15.673147640768464 6.332572288925607 0 0 0
52 1 1.7200257258303266 1.4325273804865972 4.751248449238591 0 0 0
185 1 4.893630514615545 1.4306497617617595 4.749678600850883 0 1 0
37 1 1.711859833231687 4.6036012261348835 4.744726538926798 0 0 0
38 1 0.1349453453529781 3.0237223299741878 3.1705377820609724 0 0 0
116 1 3.3072671737736434 3.0147741785472335 3.1688804663308474 0 0 0
152 1 4.895223419332128 4.586099219894484 4.752214691664054 0 0 0
40 1 6.482270305207148 3.013745642340182 3.1639958504069154 0 0 0
126 1 0.11686989883406526 6.197661734765216 3.152901513583034 0 0 0
157 1 1.710583673928967 7.764795663000654 4.738773290287916 1 0 0
47 1 3.3173983204459727 6.160006429284257 3.1815985715798547 0 0 0
212 1 4.946438559734312 7.711394781606899 4.8029356122846805 0 0 0
48 1 6.487675641238816 6.178299982242501 3.1610255656890467 0 0 0
156 1 0.028700964912201546 9.270944054534558 3.1602761398515913 0 0 0
22 1 3.485563400600925 9.207561526718889 3.3064280847294043 0 0 0
160 1 6.510123949833242 9.334919451954036 3.1814169066373625 0 0 0
166 1 0.16018344526775388 12.467345698641079 3.1863360912889034 0 0 0
176 1 1.7319135379806379 10.886616543419313 4.754400616077393 0 0 0
170 1 4.910803872263708 10.933553557557191 4.7663484745787015 0 0 0
232 1 3.3140555491412576 12.50197882074793 3.1693047732876876 0 0 0
45 1 6.48976138195397 12.509125375459956 3.172785157898524 0 0 0
26 1 0.136426888713074 15.67810527700127 3.175724579617504 0 -1 0
167 1 1.7246754751110653 14.083251146079279 4.751438329572522 0 0 0
169 1 3.3142307572124565 15.679767100720104 3.1748994732838773 0 0 0
192 1 4.89624122491583 14.090902335826048 4.751498980253588 0 0 0
159 1 6.483785383722609 15.67533416839794 3.1680032310317006 0 -1 0
71 1 0.1324810497675419 3.0175143509181463 6.330214175494068 0 0 0
57 1 3.3003389971602286 3.0153637603447687 6.329938424582755 0 0 0
41 1 6.47366630319987 3.0133232586691543 6.325068230166596 0 0 0
75 1 0.13519849883771834 6.180442962360003 6.328939009212709 1 0 0
72 1 3.2945411223746004 6.18258399033223 6.331757333989375 0 0 0
63 1 6.459686921052193 6.205021040167171 6.310494982109933 0 0 0
61 1 0.1333444137608101 9.33972160405333 6.332190377182738 0 0 0
177 1 3.317925023380183 9.334082942613472 6.350111626490387 0 0 0
19 1 6.48648972860634 9.355035857138612 6.336509274528173 0 0 0
174 1 0.13844347683465325 12.500951074665492 6.331046919660488 1 0 0
182 1 3.308502059438081 12.503997530804458 6.333146656997181 0 0 0
34 1 6.477666045245007 15.67395658451169 6.328716388741496 0 -1 0
2 1 0.1348080075577463 3.0365480893651227 0.004679355197121771 1 0 1
13 1 3.3082938817864695 3.020257075107538 0.0056916790055701934 0 0 0
227 1 4.887302607711349 1.4342476697915083 7.911477144590434 0 0 0
145 1 6.488379770384801 12.507260501154292 0.008601303364394821 0 0 0
135 1 6.486999426623556 6.17865376011573 0.0016367429093193664 0 0 0
242 1 1.758004884176574 14.06639965893442 14.274047210691938 0 0 0
186 1 1.718108446001183 7.762497447521855 7.917528133647755 0 0 0
86 1 0.14448723636547375 3.0213212741737534 9.496101139471412 0 0 0
234 1 4.9017397770470685 10.923587456387228 14.250930212303107 0 0 0
67 1 3.3032237197017325 3.018940678326503 9.497573687704657 0 0 0
121 1 4.897378681770171 10.929932607149905 7.921948281067071 0 0 0
55 1 6.45831005241487 3.036423485328371 9.480041457303404 0 0 0
49 1 1.7307834776158537 10.90401614012796 14.196688889420406 0 0 -1
222 1 0.1338492117908569 6.1827221532714525 9.501304157497943 0 0 0
178 1 3.3019011150700144 6.1837099949247225 9.502301501114466 0 0 0
210 1 4.895509870457995 7.763211570892063 7.9291265447684465 0 0 0
98 1 6.473711417562695 6.1901701381412355 9.503300870842798 0 0 0
203 1 0.13478947615225795 9.344421303405788 9.4997157936712 1 0 0
248 1 3.3087078671574184 9.344853658296238 9.50275628508664 0 0 0
209 1 6.4821910512315535 9.351446841004078 9.503160017886676 0 0 0
216 1 0.13450960048516702 12.51044689476113 9.489108051224042 0 0 0
70 1 1.7170636877016774 4.600314369772962 7.9144716524884275 0 -1 0
218 1 3.3097483980818065 12.51036817505139 9.498110414056832 0 0 0
220 1 6.482273056576506 12.513053369060225 9.500864927721837 0 0 0
24 1 0.14060428319101592 15.67627738829786 9.493868995204636 0 -1 -1
51 1 1.7203802077203052 1.4325767593069116 7.914082535215146 0 0 0
76 1 3.309216436092469 15.67642961669378 9.497630425964282 0 -1 0
27 1 4.9017889123276825 14.08954300248709 14.252436768061186 0 0 0
107 1 6.476753424452755 15.679871266490334 9.494459605566758 0 -1 0
77 1 1.7324319752915869 1.4339552946334397 11.083700700960941 0 0 0
79 1 4.892389396536238 1.4388945086565283 11.078531380290732 0 0 0
187 1 1.720357309961684 4.602015605427624 11.085861922135775 0 0 0
87 1 0.1394649824619369 3.026165405974119 12.668800218500325 0 0 0
102 1 3.3075055082236937 3.020971028492174 12.667665860765915 0 0 0
140 1 4.887693542837019 4.60415349709964 11.082696028912787 0 0 0
5 1 6.477142604078 3.0225205245128537 12.66315099568937 0 0 -1
125 1 0.1357883973317714 6.18363225602427 12.674714695188841 1 0 0
201 1 1.7197475097360866 7.762846789453515 11.08668971439358 0 0 0
123 1 4.894582010012451 7.764939686754106 11.085811485921493 0 0 0
113 1 3.3057020861555886 6.183102613441236 12.669974811621824 0 0 0
129 1 6.478458364157299 6.187096388212596 12.6689874838817 0 0 0
231 1 0.1364414102483353 9.337748236326405 12.6704622094098 0 0 0
233 1 3.3154293655422347 9.336943870521306 12.661904493411441 0 0 0
25 1 6.485001608111602 9.347080825888021 12.66752782839401 0 0 -1
190 1 1.7242906552260895 10.924785944781865 11.073420150303152 1 0 0
208 1 0.12425288903470731 12.520943456511409 12.613921298469974 0 0 0
200 1 4.897154817556509 10.929282728627324 11.084490082232643 0 0 0
143 1 3.3143986938490384 12.507990611206502 12.664686399443886 0 0 -1
245 1 6.483894111920703 12.511721665911857 12.666402475959337 0 0 0
217 1 1.7284716260932358 14.092045163190457 11.077290150492948 0 0 0
223 1 0.19297438271411674 15.653249907421689 12.690594589942839 1 -1 0
105 1 4.896910556623144 14.094699287786485 11.081889449698757 0 -1 0
81 1 3.3184555291797175 15.674349600775942 12.668400742677942 0 0 0
244 1 6.4800972012776334 15.68333461343843 12.65964942638647 0 0 0
111 1 1.7280742298071894 1.4425095235900174 14.249512488853721 0 0 0
31 1 4.896656527913914 1.435556470459929 14.247336976228107 0 1 0
110 1 1.7151694651608578 4.611433327843865 14.258654211618206 1 0 0
114 1 4.893287512004027 4.600373116712043 14.248694810362801 0 0 0
122 1 1.717842942474116 7.760312117657651 14.264922535599304 0 0 0
235 1 4.89659506687776 7.762943906747698 14.251052267890856 0 0 0
1 1 0.12305525217011115 15.735927211411132 15.816943306413329 0 -1 -1
191 1 1.7231770041617405 10.923722444234297 7.915560316544885 0 0 0
80 1 4.893415006414644 14.092913942262047 7.91537607385912 0 -1 0
97 1 1.7221790508995778 14.090756283239912 7.913039650331031 0 0 0
146 1 8.070089372628757 1.4339748368799201 1.5861726931529814 0 1 0
8 1 11.246864081174653 1.4372239262862814 1.5970575199785217 0 0 0
106 1 14.418763191051744 1.440750232528619 1.5934806782826578 0 1 0
17 1 8.073226762556967 4.6008243998091585 1.5840985640156462 0 0 0
18 1 9.656104511011941 3.024671158099848 0.01577323341659349 0 0 0
243 1 11.257478263893924 4.613354022764505 1.5872792570127652 0 0 0
10 1 12.83207600199136 3.0312295803780582 0.010409851938702858 0 0 0
225 1 14.41936437038713 4.588139359660131 1.5886235536228543 0 1 1
128 1 8.077599713617 7.7613294820600265 1.5852147647671067 0 0 0
28 1 9.665247901014457 6.182875119744194 0.0034090454135087492 0 0 0
229 1 11.226711741395503 7.763091360437188 1.5861269196892145 0 0 1
21 1 12.852228128467019 6.205677096881603 0.02677244127139556 -1 0 0
139 1 12.847198057460359 9.320878926614498 0.028665814623278076 0 0 0
136 1 8.078619198066134 10.925630243988369 1.5894501733918138 0 0 0
112 1 9.660359679688101 12.510258182550771 3.169933374861932 0 0 0
138 1 11.245461864147401 10.915771333349626 1.5902325185923087 0 0 0
164 1 14.381078308133539 10.950400551076143 1.5829416281544206 0 0 0
149 1 7.960405384780304 4.709628800202023 7.806336785375709 0 0 -1
224 1 11.239645497383892 14.093496546314467 1.5939332335541485 0 -1 0
101 1 14.44166243638078 14.073032449839834 1.6282456869650823 -1 -1 1
54 1 8.06702787132009 1.4348650710311213 4.7447131079724105 0 0 0
44 1 11.241487852023234 1.4402853176693795 4.748940639609175 0 0 0
56 1 14.417228414952119 1.4361191720869928 4.751423476982852 -1 0 0
42 1 9.658817257796851 3.0210435009646415 3.164329455717009 0 0 0
64 1 8.065901158915558 4.606242580075008 4.731955340156051 0 0 0
36 1 12.831960919053019 3.0259820832376465 3.170136045528202 -1 0 0
59 1 11.252998911979798 4.611728205264687 4.7367204378570165 0 0 0
65 1 14.416993980181893 4.6089817287216 4.740306803356167 0 0 0
88 1 9.667769163033409 6.182561810957819 3.1650061891987673 0 0 0
161 1 8.087306626119693 7.761951538857179 4.752838812841769 0 0 0
35 1 12.855394583889954 6.206417515428309 3.147002198712389 0 0 0
181 1 11.256014663872264 7.764064557938939 4.741643653378778 0 0 0
155 1 14.403921285175892 7.7485754008889565 4.788669674110115 0 0 0
137 1 9.667541076550059 9.345657902543293 3.1712041640399184 0 0 0
154 1 12.842042957098178 9.322444701935995 3.1538729985117215 0 0 0
66 1 8.07919723669959 10.930590269305004 4.75419302456923 0 0 0
162 1 11.252748218272176 10.92228986958774 4.746201246256046 0 0 0
62 1 12.82878403569924 12.504204356695084 3.1747143114996774 0 0 0
165 1 14.415285342831519 10.913773073500003 4.747111748448071 0 0 0
171 1 8.071489495413239 14.094357522197583 4.750310186205408 0 0 0
32 1 9.657193058359812 15.678150800243627 3.1701009205016266 0 -1 0
103 1 12.833435087193807 15.675793855006612 3.17919120129288 -1 -2 0
30 1 11.245125611578361 14.094024122500544 4.752544608248107 0 0 0
197 1 14.4230101396296 14.085597156883066 4.75427445185003 0 -1 0
16 1 14.415201272596251 14.095789513514179 7.9083697119309235 0 0 0
91 1 11.21686895847307 1.4629633644425137 7.897533885637363 0 0 0
179 1 8.064064070436746 7.78319966454333 7.910598804938332 0 0 0
90 1 9.641291337630177 3.0375562530023195 6.310401495252925 0 0 0
60 1 12.83009546693468 3.022470362684239 6.327077607724505 0 0 0
250 1 12.85402806814261 15.655347023791876 0.05797873434838462 0 0 1
175 1 9.663003736992549 6.189974840032631 6.325220849789629 0 0 0
92 1 12.829062947321516 6.18121389305583 6.32879083813119 0 0 0
118 1 9.662617196010489 9.350209613871188 6.332357874391991 0 0 0
194 1 12.829345847562944 9.34740884331916 6.332087400510029 0 0 0
184 1 9.660808944765755 12.511680062469097 6.331946731817737 0 0 0
163 1 12.832715446782517 12.509484739212933 6.332350668677337 0 0 0
69 1 9.653608826096923 15.68011645912793 6.328330839668401 0 -1 0
172 1 8.070387061689813 14.093681944100037 1.5877612878110139 0 0 0
33 1 12.8267817671315 15.681992569806885 6.330613013606404 0 -1 0
99 1 11.251409972639376 4.6137604492828475 7.901670812816659 0 0 0
109 1 9.65338685384035 15.678308677963724 0.00890874910742431 0 -1 1
68 1 8.052504664145337 1.4280530985042559 7.89858835889553 0 0 0
29 1 9.664020365833922 9.345373452676135 0.004449403966538919 0 0 1
198 1 8.064772666531137 14.089892715207512 7.910577303158503 0 0 0
199 1 11.242760085424518 14.094194803296137 7.911726121446026 0 0 0
206 1 14.422961785473158 4.606278289271339 7.909246007262237 0 0 0
147 1 9.650276030122281 12.511638081031759 0.0039295192952248925 0 0 0
239 1 14.418791763911635 1.4358637819527718 7.9110423118732855 0 0 0
236 1 8.07210122446954 10.927775983994612 14.249149045029412 0 0 0
53 1 9.422683735009192 3.248511565047828 9.267727626957196 0 -1 0
94 1 12.870741847464732 3.029687195363719 9.48837172164968 0 0 0
241 1 15.038425562351996 13.456963960976763 14.888750707663966 0 0 0
226 1 14.421990357438904 7.7591505814414 14.238442061664392 -1 0 0
104 1 9.639084976815761 6.202613227198635 9.482144829248421 0 0 0
183 1 12.828101680763423 6.186074784068056 9.49767202499348 0 0 1
130 1 13.668750800078586 14.853123834507482 13.492605194878243 0 0 0
43 1 14.416079361595942 7.7636461058456065 7.921107937902812 0 0 0
119 1 9.656700765619204 9.350304363123072 9.499376023578623 0 0 0
73 1 12.83062669162282 9.345697407685575 9.500618531360452 0 0 0
221 1 9.654099455922974 12.502784279442466 9.496444050367531 0 0 0
115 1 11.201729481830624 14.11819178340288 14.224528420301205 0 0 0
213 1 12.832010034069942 12.505902938283926 9.495693824261055 0 0 0
240 1 14.444929600241862 10.875151815348648 14.286819046004245 0 0 0
195 1 14.418210776950833 10.925799773997616 7.914288902898747 0 0 0
39 1 9.643522995321415 15.643225656274032 9.485754106667637 0 0 0
238 1 11.24707771079958 10.913503956729992 14.255869891487015 0 0 0
84 1 12.806325388995836 15.70292036849565 9.469230615508303 0 -1 0
246 1 8.064648234548962 14.098620526277598 14.244187795314975 0 0 0
7 1 8.049601773733043 1.4642505237141736 11.05379039435156 0 0 -1
120 1 10.857409957086961 1.8236838795438033 10.696264981121095 0 0 0
58 1 12.268420726055295 0.4159751681720518 12.104621528044257 0 1 0
188 1 14.47900283913502 1.430053856506734 11.088779128766461 0 0 0
74 1 8.053297134558754 4.616988486449311 11.090052093539892 0 0 0
20 1 9.646380460361927 3.0340487535255414 12.704295445773674 0 0 0
93 1 11.217039626260185 4.619458286945204 11.057478328407964 0 0 0
228 1 12.807596749910635 3.0527646330367855 12.643565809949727 0 0 0
96 1 14.41882684886108 4.606716686696022 11.084219522390333 -1 0 0
124 1 9.655470894012224 6.188941070761286 12.665766103519838 0 0 0
151 1 8.067261520589252 7.77056931488196 11.08316335237835 1 0 0
100 1 12.826513904341123 6.185832302054344 12.668090091435571 0 0 0
204 1 11.241763935251745 7.76640794455118 11.082191857324341 0 0 0
89 1 14.416865512414049 7.7627664877733515 11.083017077685586 0 0 0
237 1 9.659030199497451 9.344346003270223 12.667936620505253 0 0 0
230 1 12.834362801505709 9.337398157326977 12.676009486362135 0 0 0
211 1 8.070382834861771 10.92974231468573 11.084560181684356 0 0 0
247 1 9.655512845096414 12.50611640185895 12.667948186592136 0 0 0
205 1 11.24651388641187 10.919064522081277 11.086348663999908 0 0 0
6 1 12.85806988912146 12.45636530490376 12.694600797439936 0 0 0
215 1 14.419437878016083 10.921115385515103 11.0815710317305 0 0 0
50 1 9.626888163260983 15.705330774312174 12.63891167967467 0 0 0
82 1 8.065803945523452 14.094793462950058 11.080598994242782 0 -1 0
249 1 11.248416487945997 14.03610789089639 11.086454167724028 0 0 0
108 1 14.396848441883979 14.115807141938786 11.034742250674858 0 0 0
219 1 8.06557601073761 1.4378879985229218 14.24829745102552 0 0 0
85 1 11.247885708639854 1.4360061183924073 14.308502927188842 0 0 0
23 1 14.395762441130243 1.4879904082007438 14.227547929348464 0 0 0
153 1 8.066409671619121 4.606430942036613 14.253307748240145 0 0 0
117 1 11.251018651914826 4.6147141752504846 14.257417074245257 0 0 0
95 1 14.415843966041624 4.622329418466735 14.258545958171354 0 0 0
202 1 8.073814243936484 7.765195267671158 14.249212622025961 0 0 0
173 1 11.255179104924492 7.7634177474746435 14.25924434956169 0 0 0
214 1 11.245549782870288 10.929478253293269 7.915685257715984 0 0 0
193 1 8.070890224834146 10.932174523673455 7.916936693330302 0 0 0
148 1 12.76362403873654 12.514811776965233 15.821007411430557 0 0 -1
189 1 11.244297624068103 7.769755006705007 7.913202561585932 0 0 0

Velocities

11 0 0 0
4 0 0 0
180 0 0 0
158 0 0 0
14 0 0 0
78 0 0 0
15 0 0 0
131 0 0 0
12 0 0 0
132 0 0 0
144 0 0 0
127 0 0 0
141 0 0 0
133 0 0 0
207 0 0 0
150 0 0 0
134 0 0 0
142 0 0 0
9 0 0 0
46 0 0 0
168 0 0 0
83 0 0 0
3 0 0 0
196 0 0 0
52 0 0 0
185 0 0 0
37 0 0 0
38 0 0 0
116 0 0 0
152 0 0 0
40 0 0 0
126 0 0 0
157 0 0 0
47 0 0 0
212 0 0 0
48 0 0 0
156 0 0 0
22 0 0 0
160 0 0 0
166 0 0 0
176 0 0 0
170 0 0 0
232 0 0 0
45 0 0 0
26 0 0 0
167 0 0 0
169 0 0 0
192 0 0 0
159 0 0 0
71 0 0 0
57 0 0 0
41 0 0 0
75 0 0 0
72 0 0 0
63 0 0 0
61 0 0 0
177 0 0 0
19 0 0 0
174 0 0 0
182 0 0 0
34 0 0 0
2 0 0 0
13 0 0 0
227 0 0 0
145 0 0 0
135 0 0 0
242 0 0 0
186 0 0 0
86 0 0 0
234 0 0 0
67 0 0 0
121 0 0 0
55 0 0 0
49 0 0 0
222 0 0 0
178 0 0 0
210 0 0 0
98 0 0 0
203 0 0 0
248 0 0 0
209 0 0 0
216 0 0 0
70 0 0 0
218 0 0 0
220 0 0 0
24 0 0 0
51 0 0 0
76 0 0 0
27 0 0 0
107 0 0 0
77 0 0 0
79 0 0 0
187 0 0 0
87 0 0 0
102 0 0 0
140 0 0 0
5 0 0 0
125 0 0 0
201 0 0 0
123 0 0 0
113 0 0 0
129 0 0 0
231 0 0 0
233 0 0 0
25 0 0 0
190 0 0 0
208 0 0 0
200 0 0 0
143 0 0 0
245 0 0 0
217 0 0 0
223 0 0 0
105 0 0 0
81 0 0 0
244 0 0 0
111 0 0 0
31 0 0 0
110 0 0 0
114 0 0 0
122 0 0 0
235 0 0 0
1 0 0 0
191 0 0 0
80 0 0 0
97 0 0 0
146 0 0 0
8 0 0 0
106 0 0 0
17 0 0 0
18 0 0 0
243 0 0 0
10 0 0 0
225 0 0 0
128 0 0 0
28 0 0 0
229 0 0 0
21 0 0 0
139 0 0 0
136 0 0 0
112 0 0 0
138 0 0 0
164 0 0 0
149 0 0 0
224 0 0 0
101 0 0 0
54 0 0 0
44 0 0 0
56 0 0 0
42 0 0 0
64 0 0 0
36 0 0 0
59 0 0 0
65 0 0 0
88 0 0 0
161 0 0 0
35 0 0 0
181 0 0 0
155 0 0 0
137 0 0 0
154 0 0 0
66 0 0 0
162 0 0 0
62 0 0 0
165 0 0 0
171 0 0 0
32 0 0 0
103 0 0 0
30 0 0 0
197 0 0 0
16 0 0 0
91 0 0 0
179 0 0 0
90 0 0 0
60 0 0 0
250 0 0 0
175 0 0 0
92 0 0 0
118 0 0 0
194 0 0 0
184 0 0 0
163 0 0 0
69 0 0 0
172 0 0 0
33 0 0 0
99 0 0 0
109 0 0 0
68 0 0 0
29 0 0 0
198 0 0 0
199 0 0 0
206 0 0 0
147 0 0 0
239 0 0 0
236 0 0 0
53 0 0 0
94 0 0 0
241 0 0 0
226 0 0 0
104 0 0 0
183 0 0 0
130 0 0 0
43 0 0 0
119 0 0 0
73 0 0 0
221 0 0 0
115 0 0 0
213 0 0 0
240 0 0 0
195 0 0 0
39 0 0 0
238 0 0 0
84 0 0 0
246 0 0 0
7 0 0 0
120 0 0 0
58 0 0 0
188 0 0 0
74 0 0 0
20 0 0 0
93 0 0 0
228 0 0 0
96 0 0 0
124 0 0 0
151 0 0 0
100 0 0 0
204 0 0 0
89 0 0 0
237 0 0 0
230 0 0 0
211 0 0 0
247 0 0 0
205 0 0 0
6 0 0 0
215 0 0 0
50 0 0 0
82 0 0 0
249 0 0 0
108 0 0 0
219 0 0 0
85 0 0 0
23 0 0 0
153 0 0 0
117 0 0 0
95 0 0 0
202 0 0 0
173 0 0 0
214 0 0 0
193 0 0 0
148 0 0 0
189 0 0 0
