LAMMPS data file via write_data, version 22 Jul 2025, timestep = 8783, units = metal

250 atoms
1 atom types

-0.02130686821289113 15.84728486821291 xlo xhi
0 15.825978000000001 ylo yhi
0 15.825978000000001 zlo zhi

Masses

1 183.841

Atoms # atomic

2 1 1.6236727464776073 1.6375760468964986 1.4932203035891933 0 0 0
4 1 4.827393017967149 1.6540608656671967 1.4676404764109046 0 0 0
12 1 1.6250767338783005 4.795672958608498 1.4951344622899696 0 0 0
14 1 4.803242859858963 4.798717644828357 1.4921705971668642 0 0 0
126 1 1.6236777710733625 7.9545832010409985 1.4898852434143226 0 0 0
158 1 4.797430496483223 7.9504649122827304 1.496751333968657 0 0 0
132 1 1.6463639109482875 11.14879814687819 1.4432208966954834 0 0 0
134 1 4.792040189077512 11.066893640655675 1.500633716913249 0 0 0
142 1 1.5628980406265764 14.28531273963514 1.5021723118757822 0 0 0
144 1 5.2141318893734345 14.708979027266215 1.083976684251274 0 0 0
168 1 3.802306296110391 13.30209143206378 2.4857526820439504 0 0 0
27 1 1.6283473942006566 1.6410664458939974 4.657639875963389 0 0 0
26 1 0.03144282054303139 0.05514112860322496 3.0779240752007806 0 0 0
28 1 3.2385936393193604 0.08714449618979447 3.0551150252763333 0 0 0
58 1 4.808287595011359 1.6474876427005773 4.669291195483801 0 0 0
159 1 6.399248618023167 0.06629638550438521 3.1212915273247432 0 0 0
37 1 1.6205794242311864 4.792548759337099 4.666260122797561 0 0 0
36 1 0.03673951722759359 3.2151259488514587 3.0788697493270667 0 0 0
38 1 3.2181956188392578 3.2195810996352034 3.0744628553770093 0 0 0
39 1 4.808161205821033 4.795902846742106 4.669865517645266 0 0 0
40 1 6.388592554895922 3.2204169757288734 3.081158502718869 0 0 0
180 1 0.03388207763179534 6.3725064448177 3.0774082798585587 0 0 0
151 1 1.6004496354232607 7.924243689575782 4.685355659165476 0 0 0
47 1 3.210082655250414 6.368710031912616 3.0823037003521265 0 0 0
48 1 6.3851538679827815 6.377665700265338 3.0829054212888627 0 0 0
156 1 0.04227137292094677 9.549475754963341 3.0192678462382565 0 0 0
157 1 1.026055338223562 10.525298706400536 5.261064867841856 0 0 0
152 1 4.811156893076221 7.946631605139688 4.668136584153916 0 0 0
22 1 3.1900023845754557 9.489210015732287 3.1032323768293137 0 0 0
160 1 6.391270015384104 9.536838155478272 3.079047531876236 0 0 0
46 1 2.412653934186579 11.912290996260195 3.8713972396826644 -1 0 0
166 1 -0.015054970701013099 12.683874801502919 3.1027450387335804 0 0 0
170 1 4.847731441672284 11.149799605906988 4.635064774760347 0 0 0
45 1 6.41917039277503 12.736613162824993 3.0513024755732907 0 0 0
167 1 1.6475851199510145 14.343048425089961 4.636897314645564 0 0 0
169 1 4.793570650794053 14.290414046518245 4.7188761070332355 0 0 0
35 1 1.6252525554596615 1.6344407086202761 7.825468013638214 0 0 0
51 1 0.03718594607830743 0.059878171703030315 6.24181402365858 0 0 0
67 1 4.807542760627856 1.645221380223838 7.8235025967470895 0 0 0
52 1 3.213122558365559 0.05803231768360098 6.248510694959994 0 0 0
53 1 6.3880138918046665 0.060259641536989164 6.251189344829366 0 0 0
56 1 0.031892812597314496 3.2119209800878172 6.246680697985233 0 0 0
71 1 1.6201546852602637 4.791345664947317 7.828237702439776 0 0 0
57 1 3.21562039875316 3.2153657128181825 6.24204688940776 0 0 0
72 1 4.777673334659272 4.795901452993361 7.822998696181272 0 0 0
41 1 6.403596535448377 3.2381520371987986 6.262564248263083 0 0 0
61 1 0.007284699946201265 6.357643648693069 6.271429048767375 0 0 0
62 1 3.2177702305473206 6.373146011322188 6.243624616952704 0 0 0
63 1 6.40393138206912 6.355703642574522 6.262359929106668 0 0 0
186 1 1.6701350660358927 7.950496371231942 7.833720609553409 0 0 0
177 1 3.2745347958017104 9.549263595381671 6.234961139728203 0 0 0
187 1 4.818424437013732 7.947054822335398 7.8272678484242615 0 0 0
178 1 6.393680309702479 9.539083621297351 6.240461478349574 0 0 0
191 1 1.5994839609593996 11.101695416304162 7.8608112138517825 0 0 0
174 1 0.04233923282144908 12.768000222841895 6.236042466768062 1 0 0
182 1 3.1881906578845896 12.6866787288811 6.292743067134746 0 0 0
192 1 4.803803882393687 11.124974252321897 7.83021809247861 0 0 0
183 1 6.389640218270292 12.710290616480899 6.2462843878975 0 0 0
196 1 1.623690447074945 14.298262174573773 7.830477696899299 0 0 0
80 1 4.797924125134467 14.294663168130032 7.833849898989658 0 -1 0
76 1 0.03693580357263978 0.049591653784628244 9.407949556146342 0 0 0
78 1 3.2133257701786775 0.05307653627112939 9.40625037086921 0 0 0
68 1 6.386021812711764 0.05865164469711149 9.401872478233948 0 0 0
86 1 0.03526110386970308 3.207890956055094 9.410900703858847 0 0 0
66 1 3.2155077475623246 3.214011321214501 9.405306192182879 0 0 0
90 1 6.401887150547093 3.23900772156963 9.378420258844049 0 0 0
96 1 0.04996268645900244 6.362815306656395 9.423790869740657 0 0 0
97 1 3.221974263979514 6.373262741801917 9.412504225402543 0 0 0
98 1 6.399632959694128 6.3572466239794085 9.387230094025805 0 0 0
206 1 0.007332828162658267 9.513745466360142 9.428150450757135 0 0 0
208 1 3.2138125855951367 9.540211090837388 9.411322237094708 0 0 0
210 1 6.3827902527740505 9.5388750667809 9.408117136667592 0 0 0
216 1 0.033940629293851866 12.710253883384892 9.412983085323122 0 0 0
218 1 3.208274796265176 12.707282362582552 9.414927234908845 0 0 0
220 1 6.384614087429336 12.710776096499066 9.40765106378512 0 0 0
77 1 1.6262056054199425 1.6316637030143084 10.987528461738082 0 0 0
101 1 0.03819026962202291 0.048673694395247505 12.570096710925352 0 0 0
79 1 4.806712022961371 1.6449557705802262 10.973086949075128 0 0 0
103 1 3.215497476979702 0.055855564039458266 12.564109068707419 0 0 0
219 1 6.406355134931444 0.07370741771268917 12.546985961364278 0 0 0
87 1 1.627954949083801 4.79202640156882 10.992375098804219 0 0 0
111 1 0.038539290713749653 3.2133549485795214 12.57218027512161 0 0 0
89 1 4.805437381638601 4.7978048004521225 10.976933132369162 0 0 0
104 1 3.2109526676260525 3.219655286454564 12.56509466594196 0 0 0
115 1 6.3802293516340285 3.223003146756412 12.555833717771883 0 0 0
121 1 0.035026551612031886 6.3745551921777714 12.577367394306252 0 0 0
122 1 3.2116129767242483 6.378692587288994 12.570243231984849 0 0 0
123 1 6.380482122381223 6.384338764502317 12.56476393623664 0 0 0
231 1 0.03146780648482625 9.538662736690865 12.573528729710889 0 0 0
201 1 1.622880367355554 7.956921325695854 10.993950499953524 0 0 0
202 1 4.803214684639234 7.954568009712022 10.98211134601968 0 0 0
233 1 3.2113825229286275 9.542234465470212 12.568941732560946 0 0 0
203 1 6.383534739472536 9.543639961512833 12.568229719673655 0 0 0
243 1 1.6186950046483572 11.121139424789884 10.992940211292579 0 0 0
241 1 0.036186547667666095 12.708465689020107 12.57083956157901 0 0 0
207 1 3.216169072875758 12.715350367605081 12.5674675932521 0 0 0
209 1 4.797592795007474 11.126623208372735 10.989309490946248 0 0 0
245 1 6.388588156205099 12.713272247798784 12.565220563864255 0 0 0
217 1 1.6249553091037932 14.293166536787393 10.989601076814465 0 0 0
105 1 4.802556692442928 14.29947283062565 10.985844683104432 0 -1 0
1 1 0.02675406155884208 0.052774130472900686 15.734068918551097 0 0 -1
102 1 1.6192369473864408 1.6380906889524924 14.148115033957765 0 0 0
3 1 3.1698003597564015 0.05998060320941305 15.727306548568434 0 0 -1
5 1 4.788422489662774 1.6490006470240743 14.136231727097629 0 0 -1
146 1 6.640469429890607 0.30611662109131593 15.483947307934857 0 1 -1
113 1 1.6249720574674007 4.7972491164287225 14.154961895590759 0 0 0
11 1 0.038238265074605246 3.215351053290817 15.738579898635557 0 0 -1
13 1 3.21394286301143 3.219573103746366 15.733438683025247 0 0 -1
114 1 4.799529562599746 4.802745234104596 14.148546713335254 0 0 0
15 1 6.404559947990708 3.234564715851812 15.716952535357033 0 0 -1
21 1 0.03680662247267803 6.377199414492475 15.738022291173474 0 0 -1
127 1 3.211601559002629 6.377366774261769 15.736417018205795 0 0 -1
23 1 6.385745448121508 6.3828624817514825 15.735467755947797 0 0 -1
226 1 1.6232951717621686 7.959762640631585 14.152923376770826 0 0 0
131 1 0.0366527333928565 9.543989100502005 15.727348918872245 0 0 -1
133 1 3.211106428746854 9.538227534286545 15.731459456020374 0 0 -1
235 1 4.797012833594359 7.96138443295609 14.151502881261834 0 0 0
135 1 6.387954395925197 9.53413346194993 15.73355231870633 0 0 -1
232 1 1.6266625891857476 11.129205269602865 14.145476728108452 0 0 0
49 1 0.030771478918461097 12.709290758928368 15.73172120608469 0 0 -1
234 1 4.799799357580718 11.126172144417792 14.148118246695873 0 0 0
143 1 3.2355756656535344 12.7347207327846 15.702635967189078 0 0 -1
145 1 6.396358307677876 12.670658802652557 15.724959318731548 0 0 -1
242 1 1.6233279752114764 14.294832728248618 14.14851292916517 0 0 0
244 1 4.827244761830307 14.323150421081497 14.133098049582836 0 0 0
6 1 7.989042333445492 1.6514391835060298 1.50649548665039 0 0 0
8 1 11.150589248357317 1.6367252108396049 1.4949265472141569 0 0 0
10 1 14.3182085332498 1.6335919109296402 1.4958431304316597 0 0 0
16 1 7.97457546279194 4.803113554370843 1.4925648725378033 0 0 0
18 1 11.143869137969412 4.797891462137847 1.4985613373759095 0 0 0
20 1 14.318308206336958 4.795291659600355 1.496641375888813 0 0 0
128 1 7.971895063373622 7.960669445519865 1.4971803083267154 0 0 0
129 1 11.141666754093634 7.961503260923921 1.497922948526308 0 0 0
130 1 14.313320575551963 7.957047859482344 1.485986091388797 0 0 0
136 1 7.9763625349971266 11.126169667310856 1.4925464446670058 0 0 0
137 1 11.142571530535925 11.126827177712379 1.4951262293147265 0 0 0
140 1 14.310886645804816 11.125366513405787 1.4903790182936114 0 0 0
112 1 7.993242613217604 14.3235999699509 1.4651828131099718 0 0 0
148 1 11.146385890361877 14.29756793365859 1.4904666714834216 0 0 0
150 1 14.306776847690342 14.291406929653792 1.4962878497378147 0 0 0
54 1 7.977033151762261 1.6501483205776186 4.67660432372131 0 0 0
32 1 9.562456580274908 0.05630951881235156 3.0769764090071243 0 0 0
224 1 12.727997494861214 0.05218807556998395 3.07908664282663 0 0 0
44 1 11.137042365432533 1.638989072125312 4.66707829035246 0 0 0
185 1 14.315413672744821 1.6332828042215377 4.6609902085819925 0 1 0
42 1 9.561658927046626 3.2189140295575136 3.0852113473674767 0 0 0
64 1 7.969208479561595 4.797193640484269 4.642537633308123 0 0 0
227 1 12.729697999548609 3.214595305458615 3.080439134340976 0 0 0
43 1 11.128229411167927 4.7915966285249345 4.668180304645797 0 0 0
88 1 9.555585173488986 6.379444472251796 3.08417774396168 0 0 0
50 1 12.721864101067052 6.371074547892951 3.074551707662515 0 0 0
55 1 9.55630353383808 9.541474643824516 3.0804880643103862 0 0 0
153 1 7.970800191980507 7.9488688771271745 4.671147404108759 0 0 0
154 1 11.128382511855232 7.947903880784242 4.670943202327459 0 0 0
164 1 12.722312736812965 9.539098486428085 3.07955959814719 0 0 0
155 1 14.303387874830046 7.947854564481108 4.621154625955231 0 0 0
172 1 9.56109954508921 12.714915551270613 3.07247229643241 0 0 0
161 1 7.978933992520884 11.127818662964353 4.6574769981135695 0 0 0
138 1 12.721265287106831 12.705614047029218 3.081405908094265 0 0 0
162 1 11.13849366050042 11.118812999051622 4.6663740843226975 0 0 0
165 1 14.28159495141095 11.098508119657188 4.687784744437808 0 0 0
171 1 7.977038563133996 14.297263551091515 4.661430334331005 0 0 0
30 1 11.142605699809545 14.293734594824395 4.659703583353993 0 0 0
197 1 14.31117442564549 14.297262116944115 4.660739347665917 0 -1 0
34 1 9.55854708613154 0.054426015523638356 6.240511347054657 0 0 0
31 1 7.971102709441691 1.616822846151157 7.82016990496763 0 0 0
69 1 11.132036218898113 1.6371586148043404 7.821583982552621 0 0 0
33 1 12.727155838879439 0.050791534647216786 6.242864561382543 0 0 0
239 1 14.313561569809966 1.6295984364494596 7.826739678168456 0 0 0
59 1 9.536183982834016 3.2335962350485223 6.260608720884972 0 0 0
60 1 12.721436070817546 3.2075786199080776 6.243104651014732 0 0 0
74 1 11.151927167667338 4.786452576069862 7.820343613470397 0 0 0
70 1 14.31336604075622 14.302259500521215 7.828347923697195 0 -1 0
181 1 9.52722073806354 6.35220160676436 6.26311292294456 0 0 0
73 1 12.70451211675879 6.36019743455033 6.2320272181058955 0 0 0
65 1 14.311239659721297 4.7908323000363096 4.663788223526297 0 0 0
118 1 9.553332858049055 9.532402043042849 6.246953348473498 0 0 0
179 1 7.964319308385948 7.976015687333218 7.82575827729731 0 0 0
194 1 12.704249334285374 9.509404861015042 6.275015767472241 0 0 0
199 1 11.14129824999692 14.292680901847032 7.823383437958859 0 0 0
176 1 15.483277030934719 9.122607066250954 6.665873237492234 -1 0 0
184 1 9.557859495128524 12.708364766578141 6.241976379742902 0 0 0
193 1 7.97089914671125 11.127144438675513 7.825339857706302 0 0 0
222 1 11.1358908338292 11.120375793647955 7.82935849508916 0 0 0
163 1 12.723616001346013 12.709190300938971 6.244969442841684 0 0 0
195 1 14.304110474214802 11.167781890070536 7.837631527841029 0 0 0
198 1 7.971839103612356 14.291615586650702 7.823450442078429 0 0 0
75 1 14.297666406657088 4.776548059226403 7.846087286130928 0 0 0
189 1 11.105660342780936 7.926171196466311 7.846706620063945 0 0 0
82 1 9.55868821763692 0.053310134746487624 9.400342183585797 0 0 0
84 1 12.727819850708856 0.04806064869939934 9.40604972742882 0 0 0
92 1 9.53466169201435 3.2362036906554414 9.372083228132256 0 0 0
94 1 12.715618783933971 3.194690160856812 9.415204347444348 0 0 0
99 1 9.505928290135293 6.343973222962873 9.392653659767548 0 0 0
100 1 12.593790575134083 6.251242901666847 9.539595859580267 0 0 0
250 1 14.317997834472319 14.292195932775543 14.152694317406326 0 0 0
119 1 9.548537995042613 9.535734175337232 9.410789498733124 0 0 0
214 1 12.710365239731148 9.547581000392421 9.422561409593241 0 0 0
223 1 9.556006710360458 12.708611638406902 9.405824880931839 0 0 0
213 1 12.723079133737988 12.714152410700159 9.413060775225716 0 0 0
107 1 9.56628865722889 0.04962417581340676 12.558785626293405 0 0 0
81 1 7.979071205161292 1.6528127353443112 10.954889039908874 0 0 0
83 1 11.136588900979127 1.628748767878944 10.9799431628276 0 0 0
109 1 12.734511946495305 0.04903415834063593 12.567633104498386 0 0 0
188 1 14.318502833372523 1.6274205390683851 10.989826985041024 0 0 0
117 1 9.591914548930893 3.248221649756175 12.531442007943575 0 0 0
91 1 7.957155942072725 4.795420623704746 11.008940938401274 0 0 0
85 1 12.739447139680706 3.2156773553993774 12.569200753637244 0 0 0
93 1 11.09293744929909 4.756738491283593 11.015171976903206 0 0 0
95 1 14.318054525586358 4.787612744349385 10.996749784033224 0 0 0
25 1 9.555052553840149 6.388834524585651 12.566299490331858 0 0 -1
125 1 12.718606672180927 6.368425469699141 12.58932147770018 0 0 0
237 1 9.553500076198477 9.543851070379109 12.571185138382935 0 0 0
175 1 7.963241038564455 7.952896864422507 10.980503119552287 0 0 0
204 1 11.122033098796592 7.956429574114133 10.992125605638295 0 0 0
230 1 12.723999656860494 9.540110240175592 12.575958001124508 0 0 0
205 1 14.294979294461147 7.939015126797845 11.008899080275038 0 0 0
211 1 7.969070016632832 11.12574239497071 10.986875994711077 0 0 0
247 1 9.561189461130926 12.708055957560417 12.56627187365662 0 0 0
212 1 11.138185838522013 11.126406991233624 10.992764666161268 0 0 0
240 1 12.731155376376899 12.708397571675151 12.57204531334947 0 0 0
215 1 14.312339086209985 11.122701528927099 10.994176665130489 0 0 0
221 1 7.974541247488871 14.296758120689171 10.9805529568388 0 0 0
249 1 11.144503719570896 14.292102668433952 10.986803984974479 0 0 0
225 1 14.31813044945484 14.291272841343355 10.98998323573012 0 0 0
106 1 8.095810072261793 1.760407358572541 14.025757761831477 0 0 0
7 1 9.57997781756671 0.07168478498563169 15.716158889460383 0 0 -1
108 1 11.165480207283238 1.6415795804569342 14.143766419164402 0 0 0
9 1 12.734861592233973 0.05181477212517681 15.735328118627704 0 0 -1
110 1 14.321355305587465 1.6330818708563444 14.153102726831003 0 0 0
116 1 7.978793765222274 4.816897489782225 14.146846280558021 0 0 0
17 1 9.567506220933462 3.2237485959742487 15.739892692497722 0 0 -1
19 1 12.73593857261618 3.216309782272854 15.739830149108199 0 0 -1
124 1 11.142953698498014 4.796929854472921 14.163524632185998 0 0 0
120 1 14.319533401832011 4.794947784596526 14.159147380665527 0 0 0
24 1 9.558766399493834 6.3845163476916476 15.739901644451084 0 0 -1
229 1 12.7291479099722 6.377879050727461 15.74107360461887 0 0 0
228 1 7.970735713816446 7.963658142769329 14.151787661449044 0 0 0
29 1 9.557819361534415 9.544978352617413 15.738532985047518 0 0 0
173 1 11.140953811436653 7.962805671972197 14.158390994563028 0 0 0
139 1 12.728532332931076 9.543748388750883 15.738123602685896 0 0 -1
200 1 14.31457610003714 7.958414609058449 14.157588041161576 0 0 0
236 1 7.976439417127323 11.121799037172416 14.147603770552493 0 0 0
147 1 9.562836379981833 12.71275199647432 15.732782166178184 0 0 -1
149 1 12.729514919441932 12.709757645286977 15.73648140357873 0 0 -1
238 1 11.144139439898076 11.126949627033763 14.154793294375425 0 0 0
141 1 14.315967548416314 11.12539794513077 14.153046127931646 -1 0 -1
246 1 7.988627140458239 14.28560460650829 14.135829360916448 0 0 0
248 1 11.15048921695441 14.294348605273752 14.149591146475668 0 0 0
190 1 14.056071019321422 7.693546417270876 8.082239751481442 0 0 0

Velocities

2 0 0 0
4 0 0 0
12 0 0 0
14 0 0 0
126 0 0 0
158 0 0 0
132 0 0 0
134 0 0 0
142 0 0 0
144 0 0 0
168 0 0 0
27 0 0 0
26 0 0 0
28 0 0 0
58 0 0 0
159 0 0 0
37 0 0 0
36 0 0 0
38 0 0 0
39 0 0 0
40 0 0 0
180 0 0 0
151 0 0 0
47 0 0 0
48 0 0 0
156 0 0 0
157 0 0 0
152 0 0 0
22 0 0 0
160 0 0 0
46 0 0 0
166 0 0 0
170 0 0 0
45 0 0 0
167 0 0 0
169 0 0 0
35 0 0 0
51 0 0 0
67 0 0 0
52 0 0 0
53 0 0 0
56 0 0 0
71 0 0 0
57 0 0 0
72 0 0 0
41 0 0 0
61 0 0 0
62 0 0 0
63 0 0 0
186 0 0 0
177 0 0 0
187 0 0 0
178 0 0 0
191 0 0 0
174 0 0 0
182 0 0 0
192 0 0 0
183 0 0 0
196 0 0 0
80 0 0 0
76 0 0 0
78 0 0 0
68 0 0 0
86 0 0 0
66 0 0 0
90 0 0 0
96 0 0 0
97 0 0 0
98 0 0 0
206 0 0 0
208 0 0 0
210 0 0 0
216 0 0 0
218 0 0 0
220 0 0 0
77 0 0 0
101 0 0 0
79 0 0 0
103 0 0 0
219 0 0 0
87 0 0 0
111 0 0 0
89 0 0 0
104 0 0 0
115 0 0 0
121 0 0 0
122 0 0 0
123 0 0 0
231 0 0 0
201 0 0 0
202 0 0 0
233 0 0 0
203 0 0 0
243 0 0 0
241 0 0 0
207 0 0 0
209 0 0 0
245 0 0 0
217 0 0 0
105 0 0 0
1 0 0 0
102 0 0 0
3 0 0 0
5 0 0 0
146 0 0 0
113 0 0 0
11 0 0 0
13 0 0 0
114 0 0 0
15 0 0 0
21 0 0 0
127 0 0 0
23 0 0 0
226 0 0 0
131 0 0 0
133 0 0 0
235 0 0 0
135 0 0 0
232 0 0 0
49 0 0 0
234 0 0 0
143 0 0 0
145 0 0 0
242 0 0 0
244 0 0 0
6 0 0 0
8 0 0 0
10 0 0 0
16 0 0 0
18 0 0 0
20 0 0 0
128 0 0 0
129 0 0 0
130 0 0 0
136 0 0 0
137 0 0 0
140 0 0 0
112 0 0 0
148 0 0 0
150 0 0 0
54 0 0 0
32 0 0 0
224 0 0 0
44 0 0 0
185 0 0 0
42 0 0 0
64 0 0 0
227 0 0 0
43 0 0 0
88 0 0 0
50 0 0 0
55 0 0 0
153 0 0 0
154 0 0 0
164 0 0 0
155 0 0 0
172 0 0 0
161 0 0 0
138 0 0 0
162 0 0 0
165 0 0 0
171 0 0 0
30 0 0 0
197 0 0 0
34 0 0 0
31 0 0 0
69 0 0 0
33 0 0 0
239 0 0 0
59 0 0 0
60 0 0 0
74 0 0 0
70 0 0 0
181 0 0 0
73 0 0 0
65 0 0 0
118 0 0 0
179 0 0 0
194 0 0 0
199 0 0 0
176 0 0 0
184 0 0 0
193 0 0 0
222 0 0 0
163 0 0 0
195 0 0 0
198 0 0 0
75 0 0 0
189 0 0 0
82 0 0 0
84 0 0 0
92 0 0 0
94 0 0 0
99 0 0 0
100 0 0 0
250 0 0 0
119 0 0 0
214 0 0 0
223 0 0 0
213 0 0 0
107 0 0 0
81 0 0 0
83 0 0 0
109 0 0 0
188 0 0 0
117 0 0 0
91 0 0 0
85 0 0 0
93 0 0 0
95 0 0 0
25 0 0 0
125 0 0 0
237 0 0 0
175 0 0 0
204 0 0 0
230 0 0 0
205 0 0 0
211 0 0 0
247 0 0 0
212 0 0 0
240 0 0 0
215 0 0 0
221 0 0 0
249 0 0 0
225 0 0 0
106 0 0 0
7 0 0 0
108 0 0 0
9 0 0 0
110 0 0 0
116 0 0 0
17 0 0 0
19 0 0 0
124 0 0 0
120 0 0 0
24 0 0 0
229 0 0 0
228 0 0 0
29 0 0 0
173 0 0 0
139 0 0 0
200 0 0 0
236 0 0 0
147 0 0 0
149 0 0 0
238 0 0 0
141 0 0 0
246 0 0 0
248 0 0 0
190 0 0 0
