LAMMPS data file via write_data, version 22 Jul 2025, timestep = 42466, units = metal

250 atoms
1 atom types

-1.3216777788855866e-06 15.82597932167782 xlo xhi
0 15.825978000000001 ylo yhi
0 15.825978000000001 zlo zhi

Masses

1 183.841

Atoms # atomic

11 1 1.6892799896276878 1.41257933402819 1.5732474813380422 0 0 0
4 1 4.854466715329322 1.4125486164963363 1.573244754160343 0 0 0
180 1 1.6892945616126418 4.577735358089153 1.5732450552316526 0 0 0
14 1 4.854468796042086 4.577741790086584 1.5732756654182158 0 0 0
131 1 1.6892856438353714 7.742865548863702 1.5733028099839939 0 0 0
132 1 4.854478400489357 7.7428814022325865 1.573287029379921 0 0 0
207 1 1.6892714564528946 10.908068376181246 1.573275403480226 0 0 0
134 1 4.854525745649991 10.90810013341169 1.5732252477991757 0 0 0
46 1 1.6893001924117834 14.07332213655919 1.5732243164505109 -1 0 0
83 1 4.854499150165914 14.07329538996175 1.573219280098658 0 0 0
52 1 1.6892750357538602 1.4125008182785062 4.7384424701288035 0 0 0
185 1 4.854471317165824 1.4125384278160422 4.7384450534676805 0 1 0
37 1 1.6892504719424062 4.5776747035258 4.738497505665277 0 0 0
38 1 0.10668424296025222 2.9951101377409777 3.1558806714176746 0 0 0
116 1 3.27183596532195 2.9951266910177377 3.1558595872826216 0 0 0
152 1 4.854433273850328 4.577696415469254 4.738477057650575 0 0 0
40 1 6.437071980465564 2.9951362108558 3.1558604351592576 0 0 0
126 1 0.10672585647875084 6.160283503310487 3.155886961029276 0 0 0
157 1 1.6892936615105703 7.7429234619940015 4.738434860306765 1 0 0
47 1 3.2718588366291907 6.160291203868437 3.1558804111359384 0 0 0
212 1 4.854466489925844 7.742897065559446 4.738432536781548 0 0 0
48 1 6.437066073424677 6.1603194165977015 3.1558489710586497 0 0 0
156 1 0.10664890307480539 9.325447152558668 3.155900893629515 0 0 0
22 1 3.271911810441832 9.325524070908996 3.1558238563503016 0 0 0
160 1 6.437112365744209 9.32548767554349 3.1558370499935817 0 0 0
166 1 0.1067269514207927 12.490708010160201 3.155822984568189 0 0 0
176 1 1.6893506948368813 10.908148756712034 4.738371107451325 0 0 0
170 1 4.854509918575263 10.908092073162647 4.738408859081251 0 0 0
232 1 3.271926037939763 12.490722837309974 3.1558061331943517 0 0 0
45 1 6.437128715817166 12.490686532780934 3.155813378019984 0 0 0
26 1 0.10668809303848902 15.655909932588902 3.1558356194521657 0 -1 0
167 1 1.6892992270932885 14.073306824917985 4.738408501588762 0 0 0
169 1 3.271889146782127 15.65592527672811 3.1558166649743242 0 0 0
192 1 4.854544235021233 14.073344025144499 4.738414413165761 0 0 0
159 1 6.437145562433017 15.655940289385068 3.1558210974139547 0 -1 0
51 1 1.6892743702016548 1.41247655436877 7.9037008592089935 0 0 0
34 1 6.437077981413105 15.655876417922428 6.321079346470965 0 -1 0
70 1 1.6892756484306097 4.5777245749359885 7.9036698978961075 0 -1 0
71 1 0.1066552921334556 2.995087621462196 6.321082647468265 0 0 0
57 1 3.271851987436541 2.99510234278494 6.32107137591291 0 0 0
72 1 4.854473570434485 4.57772449699682 7.903626891555836 0 0 0
41 1 6.437075374066799 2.995120619122609 6.321054451499172 0 0 0
75 1 0.10668441599463786 6.160292012523064 6.321059473262283 1 0 0
186 1 1.6892765461937016 7.7429250163965895 7.903595454830654 0 0 0
62 1 3.271839835467596 6.1603080718790215 6.321038897640854 0 0 0
210 1 4.854471595230442 7.7429241731230105 7.903620096712698 0 0 0
63 1 6.437066706262679 6.160309240810675 6.321036307566217 0 0 0
61 1 0.1067464073919205 9.32554366881092 6.3210001220572485 0 0 0
177 1 3.2718969565290776 9.32551500161754 6.320999582868045 0 0 0
19 1 6.437062904677032 9.325500977362955 6.321020616733267 0 0 0
174 1 0.10671680205459434 12.490690963055165 6.32099988871388 1 0 0
191 1 1.6893173215073063 10.90811532947326 7.903584460248521 0 0 0
182 1 3.271949867083033 12.490749345561799 6.3209702920337305 0 0 0
121 1 4.854496613006594 10.908118623852046 7.9036064114397835 0 0 0
9 1 6.437109376272391 12.490698619331699 6.321034030418737 0 -1 0
78 1 0.10670170073541037 15.65586291414443 6.321021386939844 1 -1 0
97 1 1.689323263090694 14.073292650736487 7.903607289168361 0 0 0
196 1 3.2719038106357763 15.655902731958287 6.3210304229242835 0 0 0
80 1 4.854489036311752 14.073286216229766 7.903628188588428 0 -1 0
227 1 4.854499759692013 1.412519512507189 7.903649668542796 0 0 0
86 1 0.10670509191221111 2.995145825335901 9.48628681007377 0 0 0
67 1 3.2718988428557148 2.995138979581105 9.486243850720998 0 0 0
168 1 6.437082659378091 2.9950897759065205 9.486270444931026 0 0 0
222 1 0.10668712409549494 6.160338841138734 9.486240392560596 0 0 0
178 1 3.2718876659003473 6.1603560905923525 9.486228518654821 0 0 0
98 1 6.437144881074453 6.16035357472708 9.486208060753608 0 0 0
203 1 0.10671009469412213 9.325503974637982 9.48621598890015 1 0 0
248 1 3.2718887532625036 9.325544529479888 9.486199552918094 0 0 0
209 1 6.43708923185772 9.32554454371782 9.486264329454144 0 0 0
216 1 0.10674575786967341 12.490686894672827 9.486199151028911 0 0 0
218 1 3.2718644313767338 12.490663569577821 9.486253446150947 0 0 0
220 1 6.437072331991039 12.490683153242363 9.486281240996533 0 0 0
24 1 0.10674766172302712 15.65588713161651 9.486263536468336 0 -1 -1
76 1 3.271885630022319 15.655866750876683 9.486285146974318 0 -1 0
27 1 4.854476325822069 14.073273733036238 14.23402688483824 0 0 0
50 1 6.437081458085624 15.655877555938279 9.486274596120875 0 0 0
77 1 1.6893195244752202 1.4125632281625848 11.06885070666378 0 0 0
79 1 4.854492020659692 1.4125387916071384 11.0688635645916 0 0 0
187 1 1.6893021785755218 4.577763144762373 11.068842821304736 0 0 0
87 1 0.10671623391694673 2.9951686996995184 12.651457191935933 0 0 0
102 1 3.271952093476093 2.99520668521822 12.651402678961055 0 0 0
140 1 4.854543572714424 4.5777579481343365 11.068810595611135 0 0 0
5 1 6.43710496977431 2.995140864915414 12.651454782880345 0 0 -1
125 1 0.10672543935326641 6.160348323811369 12.65144161645277 1 0 0
201 1 1.6893004444462678 7.742947968464834 11.068823673839828 0 0 0
123 1 4.854499588363772 7.742949704805006 11.068852487868572 0 0 0
113 1 3.271930952007694 6.160360003478191 12.65142243465074 0 0 0
129 1 6.437123606138235 6.160354867915348 12.651463539978456 0 0 0
231 1 0.10666445120877377 9.325461124153168 12.651470754952783 0 0 0
233 1 3.2718628524477222 9.325521116509076 12.65148935574184 0 0 0
25 1 6.4371527186345014 9.325544821520538 12.651460195912687 0 0 -1
190 1 1.6892602955230713 10.908057982746602 11.068853079580295 1 0 0
208 1 0.10672044472709721 12.490660874745478 12.651488080713396 0 0 0
200 1 4.854478274020993 10.908117658240567 11.068874706172561 0 0 0
143 1 3.271839613492229 12.490637209126465 12.651515515536127 0 0 -1
245 1 6.437094127206273 12.49066499613022 12.651486014556006 0 0 0
217 1 1.689321129622887 14.07327613698512 11.068874135694067 0 0 0
223 1 0.10674600534322938 15.655949711617458 12.651459915199755 1 -1 0
105 1 4.854445693947822 14.073245783153098 11.068909598174256 0 -1 0
81 1 3.2718682679991486 15.65588879132193 12.651483777595255 0 0 0
244 1 6.437066137149072 15.65586494819391 12.651463647938094 0 0 0
111 1 1.6893154713003524 1.4125887313719176 14.234036535205632 0 0 0
31 1 4.854499703716066 1.4125650687106235 14.234030717233164 0 1 0
110 1 1.689349152215705 4.577798262400344 14.234002647820862 1 0 0
2 1 0.10674869720711569 2.99516918605714 15.816600977758737 1 0 0
13 1 3.2718940560413268 2.995167521985218 15.816635246535279 0 0 -1
114 1 4.85451152182665 4.577762148231324 14.234049102339794 0 0 0
15 1 6.437067777728195 2.9951469043788768 15.81664591934836 0 0 -1
122 1 1.6892685457602434 7.742898285319167 14.234083601848033 0 0 0
3 1 3.2718899826627403 15.655950545394603 15.816604573253018 0 -1 -1
235 1 4.854529228650793 7.742948146474562 14.234052946726845 0 0 0
127 1 3.271911372623708 6.160349362053044 15.816627289177944 0 0 -1
135 1 6.437113551712078 6.160340015285729 15.816665461412265 0 0 -1
144 1 6.437089461123459 15.655886543041428 15.816603606144225 0 0 -1
133 1 3.2718817386768 9.325460802494453 15.816687126946931 0 0 -1
158 1 6.437138323007035 9.325501954132317 15.816641710214721 0 0 -1
49 1 1.6892219244888276 10.908017171426271 14.234130227565657 0 0 -1
150 1 0.10666179799663318 12.49068039955043 15.81668940138375 1 0 -1
142 1 3.271862671223889 12.490659395147137 15.816628871819475 0 0 -1
234 1 4.854496244238784 10.908059389560545 14.23408888344981 0 0 0
145 1 6.437154009082544 12.490687739220714 15.816604476876831 0 0 -1
242 1 1.6892613614235426 14.073295010075729 14.234089108720012 0 0 0
1 1 0.10670643992864864 15.655933359082143 15.816643098945391 0 -1 -1
141 1 0.10665727811490161 9.325455618341282 15.816693500866863 0 0 -1
12 1 0.10665140904806607 6.160269417726655 15.816700444759977 1 0 -2
146 1 8.01971013312642 1.412527314066475 1.5732475949360463 0 1 0
8 1 11.184879111400063 1.4124870777556384 1.5732748074625058 0 0 0
106 1 14.350112367254814 1.4125276966313287 1.5732417924147863 0 1 0
17 1 8.019667985510628 4.577697997709557 1.5732772328799693 0 0 0
243 1 11.184925256414102 4.577743177818432 1.5732889871378044 0 0 0
225 1 14.350079017990723 4.577643776232489 1.5732733342542355 0 1 1
128 1 8.019708324679984 7.742929465814077 1.573239004146958 0 0 0
229 1 11.184824349652153 7.742898078271981 1.5732705461447294 0 0 1
130 1 14.350111877740511 7.742929083124773 1.573241626765168 0 0 0
136 1 8.019759655228922 10.908078615124742 1.5732478427781482 0 0 0
137 1 11.184916180388026 10.908091415689446 1.5732465097892447 0 0 0
164 1 14.350049267868062 10.908081932302998 1.573302059940163 0 0 0
112 1 8.019729300510578 14.0732653677508 1.5732464959519066 0 0 0
224 1 11.184923641376356 14.07326558000921 1.573276837411028 0 -1 0
101 1 14.350064638863774 14.073275079133108 1.5732876147304458 -1 -1 1
54 1 8.01969388915627 1.412508630004778 4.7384863602784595 0 0 0
44 1 11.184896110357212 1.4124825042658404 4.738457345121857 0 0 0
56 1 14.350080283156402 1.4124884405441334 4.7384741572989455 -1 0 0
42 1 9.60229805914145 2.995116564515377 3.155889500664478 0 0 0
64 1 8.019665352571076 4.577715606716168 4.738454431023467 0 0 0
35 1 12.767553893486077 6.160368288722598 3.1557999371702654 0 0 0
36 1 12.76749814425571 2.9950660224273986 3.1558565876241764 -1 0 0
65 1 14.350064785278446 4.5777420143208065 4.738429150610338 0 0 0
88 1 9.602244835586806 6.160314257610724 3.1558585085592687 0 0 0
161 1 8.019671650455939 7.742896397519723 4.7384741121634555 0 0 0
181 1 11.184921292799691 7.742883853880331 4.738431877475446 0 0 0
155 1 14.350082647635972 7.742898761117175 4.738527291798183 0 0 0
55 1 9.602294203400628 9.325483220948072 3.155881744685191 0 0 0
154 1 12.767464716261992 9.325525124414447 3.1558872508994398 0 0 0
66 1 9.60230980199491 12.490634104286901 3.1558573928481675 0 0 0
172 1 8.01968113932622 10.908071401679841 4.738443909262509 0 0 0
162 1 11.18485718769202 10.908044451505551 4.738496239094382 0 0 0
138 1 12.767471847399692 12.4906578161578 3.1558801735858237 0 0 0
165 1 14.350106618688132 10.908090467861838 4.738436216483898 0 0 0
32 1 9.602315663368083 15.655867957227308 3.1558608469446154 0 -1 0
171 1 8.01972034801136 14.073270543541238 4.738443059306786 0 0 0
103 1 12.767504123009697 15.65585875566687 3.1558489260554183 -1 -2 0
30 1 11.18487982598542 14.073231930672042 4.73847370069503 0 0 0
197 1 14.350077439948846 14.07326459695314 4.738431080155993 0 -1 0
90 1 9.602397739585617 2.995214881926586 6.320958778466509 0 0 0
68 1 8.019734746001193 1.4125540573807165 7.903621851124501 0 0 0
239 1 14.350105519214118 1.4125271788842249 7.903643737515465 0 0 0
59 1 11.18500312959591 4.57782043375856 4.738352251688312 0 0 0
33 1 12.767491200097012 15.655866062351562 6.32103625702162 0 -1 0
60 1 12.767464065972733 2.9951185793719985 6.321055045851968 0 0 0
16 1 14.350104922370113 14.07326630817928 7.903621136644162 0 0 0
206 1 14.350077611054104 4.577699542930724 7.903685024346708 0 0 0
179 1 8.019707397196086 7.74292390660612 7.903646427969601 0 0 0
175 1 9.602302505610867 6.160282384450989 6.321052709223821 0 0 0
92 1 12.767495656844758 6.16031365688238 6.321109729648117 0 0 0
189 1 11.184880684451059 7.742896071027262 7.903682945086329 0 0 0
43 1 14.350114259597673 7.742928544264818 7.90364623094355 0 0 0
118 1 9.602272221563492 9.32545271267227 6.321080327844137 0 0 0
194 1 12.767472884239652 9.325484187959287 6.321058420864225 0 0 0
184 1 9.602280259141844 12.490647390266048 6.321075249838673 0 0 0
193 1 8.019656374871657 10.908077778923051 7.903698885579935 0 0 0
163 1 12.767492814484193 12.490635576011774 6.321041096803697 0 0 0
214 1 11.184907980955213 10.908073556284519 7.903669701910052 0 0 0
195 1 14.350105837229199 10.908078311000653 7.9035931691288415 0 0 0
69 1 9.602301612372203 15.655875096073023 6.321052315284153 0 -1 0
199 1 11.184907798884122 14.073268724334763 7.903628711168854 0 0 0
198 1 8.019701512035011 14.073292964133824 7.903652038136325 0 0 0
149 1 8.019691008940429 4.577679151166945 7.903661397518486 0 0 -1
99 1 11.184898912093354 4.5777156181221095 7.903687193801829 0 0 0
91 1 11.184863537683096 1.4125101942883542 7.9036570700576 0 0 0
53 1 9.602297479462363 2.9951186833322616 9.486273997702606 0 -1 0
94 1 12.767493006259368 2.995135961549558 9.486282287104734 0 0 0
104 1 9.602315598220484 6.160310634752914 9.48628567926472 0 0 0
100 1 12.767507438196915 6.160322875324615 9.486287416582051 0 0 0
119 1 9.602329722060755 9.325500917574054 9.486289830205193 0 0 0
73 1 12.76751830091316 9.325486417070758 9.486241381553482 0 0 0
221 1 9.602318409809616 12.490698173553168 9.486239736203009 0 0 0
213 1 12.767539482347987 12.490686665860913 9.486224574177132 0 0 0
39 1 9.602269019726183 15.655878318150778 9.486273149065937 0 0 0
84 1 12.767534914967914 15.655940423942292 9.48620738807427 0 -1 0
107 1 8.019701825614188 1.412517520724144 11.068850236859967 0 0 0
120 1 11.184907850277842 1.412541365663423 11.06888276929217 0 0 0
188 1 14.35010874160991 1.4125494391558686 11.068882153403283 0 0 0
20 1 9.602285082356584 2.9951032365200896 12.651501222965505 0 0 0
74 1 8.019725170191949 4.577726522462524 11.06887861145785 0 0 0
23 1 12.76749090787327 2.995127960619667 12.651514125269149 0 0 0
93 1 11.184875080988137 4.577695207163188 11.068919993726869 0 0 0
96 1 14.350079202243755 4.577740793374552 11.068883619143548 -1 0 0
151 1 8.01973117956385 7.7429263252870095 11.068878275065453 1 0 0
124 1 9.602313291220351 6.160308345315448 12.651511781835897 0 0 0
204 1 11.18492108897679 7.742897475266461 11.068884938125807 0 0 0
183 1 12.767471908747535 6.160291583301589 12.651493827737449 0 0 1
89 1 14.350066682352558 7.742882659586349 11.068874546015646 0 0 0
237 1 9.602351827696388 9.325516296691932 12.651454045290425 0 0 0
230 1 12.767529214953381 9.32552461290628 12.651440125290081 0 0 0
211 1 8.019744801984618 10.908116391641268 11.06885309268011 0 0 0
247 1 9.602386304840403 12.490749828600933 12.651404273255801 0 0 0
205 1 11.184945608560724 10.908094663596481 11.06884434138846 0 0 0
6 1 12.767544238925133 12.490725640846174 12.65142433475744 0 0 0
215 1 14.350129254222834 10.908100565539021 11.068826349841691 0 0 0
82 1 8.019721926376398 14.07329001566904 11.068862406296539 0 -1 0
7 1 9.602324064356926 15.655902879524271 12.65145046284686 0 -1 -1
249 1 11.184940204158963 14.073343702621852 11.068810243393935 0 0 0
58 1 12.767534812743218 15.655924335867255 12.65146178686683 0 0 0
108 1 14.350132843405202 14.07329588826439 11.068852301278573 0 0 0
219 1 8.019654684514991 1.4124767375901892 14.234080038658284 0 0 0
85 1 11.184908901538265 1.412501315876197 14.234074274698333 0 0 0
228 1 14.350106507387588 1.412579437155508 14.234072186912694 0 0 0
18 1 9.602269502146662 2.9950872321315276 15.816695333202674 0 0 -1
153 1 8.019681567360381 4.5777243450061835 14.234076028215634 0 0 0
117 1 11.184855918388173 4.57767486398255 14.234099389575482 0 0 0
10 1 12.767474187957339 2.995111285848438 15.816666998017448 0 0 -1
95 1 14.350108822374434 4.577735992567272 14.234057207139326 0 0 0
28 1 9.602294126868001 6.160292181108111 15.816667651751747 0 0 -1
202 1 8.019757428878085 7.742925148018322 14.234075429711854 0 0 0
139 1 12.76745226861605 9.325448342911205 15.816701637981945 0 0 -1
173 1 11.184918311530684 7.742924258789601 14.234057094441761 0 0 0
226 1 14.350049359818865 7.742866652929154 14.234064803917464 -1 0 0
29 1 9.602350182265832 9.325544547894788 15.816602547292726 0 0 0
241 1 14.350130543901422 14.073322982147793 14.234052976672553 0 0 0
236 1 8.019769148397806 10.908115240887712 14.234034930147708 0 0 0
147 1 9.602350413573877 12.490691324616273 15.816633511076471 0 0 -1
238 1 11.184981290606853 10.90814892996662 14.234000912380248 0 0 0
148 1 12.767531028375117 12.490709429148728 15.81662536230179 0 0 -1
240 1 14.350078874596756 10.908067250910598 14.234081720630487 0 0 0
246 1 8.019745804003037 14.073293451273916 14.234029599418461 0 0 0
109 1 9.602329966679083 15.655864809391948 15.816649200611861 0 -1 0
115 1 11.184944864849463 14.07330712220318 14.234049726853973 0 0 0
250 1 12.767520914108035 15.655909937856348 15.816665877870571 0 0 0
21 1 12.76746387349658 6.160282324927068 15.81662394226992 -1 0 -1

Velocities

11 0 0 0
4 0 0 0
180 0 0 0
14 0 0 0
131 0 0 0
132 0 0 0
207 0 0 0
134 0 0 0
46 0 0 0
83 0 0 0
52 0 0 0
185 0 0 0
37 0 0 0
38 0 0 0
116 0 0 0
152 0 0 0
40 0 0 0
126 0 0 0
157 0 0 0
47 0 0 0
212 0 0 0
48 0 0 0
156 0 0 0
22 0 0 0
160 0 0 0
166 0 0 0
176 0 0 0
170 0 0 0
232 0 0 0
45 0 0 0
26 0 0 0
167 0 0 0
169 0 0 0
192 0 0 0
159 0 0 0
51 0 0 0
34 0 0 0
70 0 0 0
71 0 0 0
57 0 0 0
72 0 0 0
41 0 0 0
75 0 0 0
186 0 0 0
62 0 0 0
210 0 0 0
63 0 0 0
61 0 0 0
177 0 0 0
19 0 0 0
174 0 0 0
191 0 0 0
182 0 0 0
121 0 0 0
9 0 0 0
78 0 0 0
97 0 0 0
196 0 0 0
80 0 0 0
227 0 0 0
86 0 0 0
67 0 0 0
168 0 0 0
222 0 0 0
178 0 0 0
98 0 0 0
203 0 0 0
248 0 0 0
209 0 0 0
216 0 0 0
218 0 0 0
220 0 0 0
24 0 0 0
76 0 0 0
27 0 0 0
50 0 0 0
77 0 0 0
79 0 0 0
187 0 0 0
87 0 0 0
102 0 0 0
140 0 0 0
5 0 0 0
125 0 0 0
201 0 0 0
123 0 0 0
113 0 0 0
129 0 0 0
231 0 0 0
233 0 0 0
25 0 0 0
190 0 0 0
208 0 0 0
200 0 0 0
143 0 0 0
245 0 0 0
217 0 0 0
223 0 0 0
105 0 0 0
81 0 0 0
244 0 0 0
111 0 0 0
31 0 0 0
110 0 0 0
2 0 0 0
13 0 0 0
114 0 0 0
15 0 0 0
122 0 0 0
3 0 0 0
235 0 0 0
127 0 0 0
135 0 0 0
144 0 0 0
133 0 0 0
158 0 0 0
49 0 0 0
150 0 0 0
142 0 0 0
234 0 0 0
145 0 0 0
242 0 0 0
1 0 0 0
141 0 0 0
12 0 0 0
146 0 0 0
8 0 0 0
106 0 0 0
17 0 0 0
243 0 0 0
225 0 0 0
128 0 0 0
229 0 0 0
130 0 0 0
136 0 0 0
137 0 0 0
164 0 0 0
112 0 0 0
224 0 0 0
101 0 0 0
54 0 0 0
44 0 0 0
56 0 0 0
42 0 0 0
64 0 0 0
35 0 0 0
36 0 0 0
65 0 0 0
88 0 0 0
161 0 0 0
181 0 0 0
155 0 0 0
55 0 0 0
154 0 0 0
66 0 0 0
172 0 0 0
162 0 0 0
138 0 0 0
165 0 0 0
32 0 0 0
171 0 0 0
103 0 0 0
30 0 0 0
197 0 0 0
90 0 0 0
68 0 0 0
239 0 0 0
59 0 0 0
33 0 0 0
60 0 0 0
16 0 0 0
206 0 0 0
179 0 0 0
175 0 0 0
92 0 0 0
189 0 0 0
43 0 0 0
118 0 0 0
194 0 0 0
184 0 0 0
193 0 0 0
163 0 0 0
214 0 0 0
195 0 0 0
69 0 0 0
199 0 0 0
198 0 0 0
149 0 0 0
99 0 0 0
91 0 0 0
53 0 0 0
94 0 0 0
104 0 0 0
100 0 0 0
119 0 0 0
73 0 0 0
221 0 0 0
213 0 0 0
39 0 0 0
84 0 0 0
107 0 0 0
120 0 0 0
188 0 0 0
20 0 0 0
74 0 0 0
23 0 0 0
93 0 0 0
96 0 0 0
151 0 0 0
124 0 0 0
204 0 0 0
183 0 0 0
89 0 0 0
237 0 0 0
230 0 0 0
211 0 0 0
247 0 0 0
205 0 0 0
6 0 0 0
215 0 0 0
82 0 0 0
7 0 0 0
249 0 0 0
58 0 0 0
108 0 0 0
219 0 0 0
85 0 0 0
228 0 0 0
18 0 0 0
153 0 0 0
117 0 0 0
10 0 0 0
95 0 0 0
28 0 0 0
202 0 0 0
139 0 0 0
173 0 0 0
226 0 0 0
29 0 0 0
241 0 0 0
236 0 0 0
147 0 0 0
238 0 0 0
148 0 0 0
240 0 0 0
246 0 0 0
109 0 0 0
115 0 0 0
250 0 0 0
21 0 0 0
