LAMMPS data file via write_data, version 22 Jul 2025, timestep = 440, units = metal

250 atoms
1 atom types

-0.021199185299627984 15.847177185299612 xlo xhi
0 15.825978000000001 ylo yhi
0 15.825978000000001 zlo zhi

Masses

1 183.841

Atoms # atomic

2 1 1.6112389236923579 1.6463141222005446 1.56829350368658 0 0 0
51 1 0.029098308633386156 0.06318407534471662 6.32020499150062 0 0 0
4 1 4.782604851494728 1.6458548879752815 1.5731478394168228 0 0 0
71 1 1.6073598714816193 4.808127717766208 7.902514730457871 0 0 0
183 1 6.35101044238163 12.704685136874273 6.315370951883807 0 0 0
12 1 1.6285032117825717 4.841135496731779 1.5394109409167789 0 0 0
14 1 4.787144513621226 4.813869337156795 1.5676541312837897 0 0 0
166 1 0.020253266841610097 12.720014943772147 3.1544491086679165 0 0 0
181 1 0.018573800005849954 12.71957327020831 6.320504239970404 0 0 0
126 1 1.6291338826478545 7.999039986052866 1.5872413856476122 0 0 0
158 1 4.791512793885387 7.978248184686697 1.5720295803763997 0 0 0
66 1 1.60701432027499 1.6440268691868192 7.905815296662312 0 0 0
191 1 1.599961544741121 11.135686600817507 7.902101158397789 0 0 0
132 1 1.6106939106483067 11.145818111140958 1.571531881132607 0 0 0
134 1 4.783952530328913 11.140871228244112 1.5754780936619748 0 0 0
72 1 4.780902547159274 4.807027908641731 7.9039149034339395 0 0 0
177 1 3.1914147670890363 9.553406941207198 6.318491804579419 0 0 0
142 1 1.6079238429157663 14.306395170303844 1.5732416072684958 0 0 0
144 1 4.781050060492023 14.306878336761958 1.5751392703108367 0 0 0
26 1 0.025232867606680143 0.05817844967481158 3.1543525599151425 0 0 0
27 1 1.6147982621929742 1.6477300612576886 4.734466128232952 0 0 0
29 1 4.777722710275388 1.638733351939093 4.744332997105088 0 0 0
28 1 3.1949272423666377 0.06254065359331544 3.1563008547738214 0 0 0
30 1 6.365228225191433 0.06144846203006954 3.1545339226921247 0 0 0
37 1 1.6102109830344502 4.8124080713110375 4.735643295678405 0 0 0
36 1 0.0584168097027315 3.2540681801764686 3.1261265105354563 0 0 0
38 1 3.1990312474878664 3.23259615981039 3.1495090361154654 0 0 0
39 1 4.780599562459127 4.808768479871532 4.737544170401895 0 0 0
40 1 6.36140070389503 3.2237480855415406 3.158488955348826 0 0 0
180 1 0.021634371089628388 6.39041985754762 3.169790731873092 0 0 0
47 1 3.199388053236389 6.395363777317388 3.151432503713415 0 0 0
48 1 6.369256394718302 6.391180726480271 3.1543445453899563 0 0 0
151 1 1.60856908638002 7.975567757908131 4.73856769764483 0 0 0
156 1 0.020461447100093982 9.557558478292785 3.1495806217539513 0 0 0
152 1 4.782105577977266 7.972227900675203 4.7374639726471734 0 0 0
22 1 3.2001537864616094 9.562222763732724 3.1591514044529823 0 0 0
160 1 6.371900802016095 9.554070722984392 3.155828018922416 0 0 0
157 1 1.6045766300578586 11.138208127787076 4.736787233439253 0 0 0
186 1 1.6065120574007208 7.972880521272357 7.899415909292262 0 0 0
168 1 3.1932106549730515 12.723340279865761 3.1569648413643354 0 0 0
170 1 4.777698564616497 11.134748107758439 4.737601968857347 0 0 0
45 1 6.362919644699744 12.716227438267607 3.151608442494698 0 0 0
167 1 1.6072800410000165 14.303660072315646 4.738788017924836 0 0 0
169 1 4.775964503475507 14.300793447165763 4.7418199209404595 0 0 0
176 1 0.017336442981746605 9.554870366245382 6.317896549718195 0 0 0
187 1 4.780432472554425 7.967523622328112 7.902331613632729 0 0 0
52 1 3.1908828790470993 0.0570555952547863 6.3263069692946 0 0 0
53 1 6.346845544692793 0.03165733314541982 6.35272194697472 0 0 0
56 1 0.02430862409562046 3.2262317103698925 6.324721277255367 0 0 0
182 1 3.1864987034933288 12.71707941430458 6.3229622793934865 0 0 0
57 1 3.1941705357289187 3.2258583092157735 6.320680884067074 0 0 0
178 1 6.364811380400631 9.54923955133713 6.32353984515403 0 0 0
58 1 6.363099269587896 3.226561372820878 6.32513776057304 0 0 0
61 1 0.021803145904983202 6.3933687709110725 6.325883883218899 0 0 0
62 1 3.1946153340578025 6.389865882595875 6.318670639779263 0 0 0
63 1 6.367353111184412 6.390240433195585 6.322078494220604 0 0 0
192 1 4.771139398407421 11.12809879243806 7.902815380319157 0 0 0
196 1 1.6014414399807038 14.302692980064545 7.907247355046678 0 0 0
67 1 4.7759627572398005 1.6414266942902196 7.9099479927764005 0 0 0
76 1 0.016959914875479487 0.06451361121434458 9.49148908195792 0 0 0
78 1 3.186838029184255 0.060667382367980714 9.492334526314597 0 0 0
141 1 0.021635697539091905 12.72477216920882 15.813938790764313 0 0 -1
68 1 6.353476481049864 0.07148236356616522 9.507778292517962 0 0 0
86 1 0.019205157221600353 3.2282881475716323 9.49032850472424 0 0 0
88 1 3.1939501431375663 3.225693360927948 9.486025686304982 0 0 0
90 1 6.365265983080899 3.2330647457693766 9.4972366714846 0 0 0
96 1 0.02060883476724313 6.391980882863423 9.484674313197921 0 0 0
97 1 3.196754180694001 6.388475205931309 9.481232518473883 0 0 0
98 1 6.3714536520038445 6.386235966220696 9.49086221128819 0 0 0
206 1 0.015281440376033123 9.554304170175456 9.48404213902624 0 0 0
208 1 3.193610681476766 9.554835859761418 9.475668484791777 0 0 0
210 1 6.363128604920521 9.532930687221603 9.49825369549979 0 0 0
216 1 0.01544176269526886 12.72024974806156 9.489103193356117 0 0 0
218 1 3.1712765345928715 12.712353883575265 9.496720166398372 0 0 0
220 1 6.245279200479027 12.599452522617703 9.610445463797113 0 0 0
80 1 4.7577727338827085 14.28398551575439 7.926601908652363 0 -1 0
198 1 7.707219597657053 14.05556626534184 8.156472370682021 0 0 0
77 1 1.604737140239022 1.6455929596495904 11.069967108257366 0 0 0
101 1 0.01706680641833107 0.06634181005579592 12.653275141522565 0 0 0
79 1 4.7799779751447415 1.645758454665391 11.074601591483676 0 0 0
103 1 3.1922238331194315 0.06523573483853576 12.655231414777164 0 0 0
219 1 6.367161522367329 0.0632602630394651 12.66083501534086 0 0 0
87 1 1.6112637857357393 4.809798546702514 11.062120717167781 0 0 0
111 1 0.02097068418602292 3.229073406337628 12.647196859954208 0 0 0
89 1 4.787067050128094 4.807113390692785 11.069393583493653 0 0 0
113 1 3.2030186545485066 3.221612710892384 12.644445506956046 0 0 0
115 1 6.377215285954212 3.2257282702142605 12.653545637718674 0 0 0
121 1 0.04164325572366719 6.413555260072624 12.629832919901467 0 0 0
122 1 3.2085548437887033 6.390352729671911 12.64042944664372 0 0 0
123 1 6.383154426169156 6.389202827034635 12.650802106855089 0 0 0
201 1 1.616190586580956 7.982552296192304 11.048716633886995 0 0 0
231 1 0.01323955007254947 9.560684768489876 12.645906009794869 0 0 0
233 1 3.2350151252936286 9.595852672728022 12.612008491474697 0 0 0
202 1 4.786137313337222 7.962474812148492 11.068913217687877 0 0 0
203 1 6.383860409872701 9.554597257102271 12.653119270444767 0 0 0
207 1 1.5944985180235602 11.137730383534945 11.070455492682262 0 0 0
241 1 0.016614243666674983 12.726088674135822 12.652046887100092 0 0 0
209 1 4.748980713421647 11.105168912092541 11.103487964049636 0 0 0
243 1 3.193544200842985 12.733333513853323 12.652991817567358 0 0 0
245 1 6.361090730064608 12.714274659966362 12.673015003150443 0 0 0
217 1 1.600357232860284 14.307539987871262 11.0726402714589 0 0 0
105 1 4.771488912455679 14.307843733975192 11.080643573705023 0 -1 0
102 1 1.608166406619421 1.6450049648695728 14.232587912048482 0 0 0
104 1 4.784883249808094 1.6467315958926685 14.23617061438503 0 0 0
112 1 1.6389212648510652 4.791019943138581 14.205529154987886 0 0 0
1 1 0.024104762833700933 0.05575783365689212 15.809742931360327 0 0 -1
114 1 4.790783536086743 4.809989787750258 14.229765085325395 0 0 0
135 1 6.377280295924656 9.556953757262415 15.818394623234743 0 0 -1
21 1 0.3220497771881478 6.630578654181587 15.567959967879348 0 0 -1
127 1 3.2208562952182 6.414147709995371 15.794168677901828 0 0 -1
226 1 1.7388720112331681 8.106580045871098 14.100751764107185 0 0 0
131 1 0.04078445734586134 9.571641565347372 15.79439336429983 0 0 -1
235 1 4.808633757673363 7.982882752996803 14.224412823324775 0 0 0
5 1 6.369626757433737 0.0648130378033638 15.816745967137638 0 0 -1
232 1 1.6160808728841751 11.158564355623609 14.225336108268596 0 0 0
234 1 4.784057713883518 11.140427121750895 14.245100570873127 0 0 0
242 1 1.6075396353199725 14.30939081950592 14.23387909575467 0 0 0
244 1 4.780728554932858 14.308324301129232 14.24034989684702 0 0 0
23 1 6.379875187806628 6.394106279456691 15.8154517860307 0 0 -1
13 1 3.200219961927598 3.2297799099304245 15.81309060937681 0 0 -1
15 1 6.373932921064152 3.227365939722736 15.816775205258049 0 0 -1
145 1 6.369113404215117 12.722288539831345 15.820740245980403 0 0 -1
133 1 3.2067515022806994 9.56671808804935 15.818203844324485 0 0 -1
11 1 0.014682715337886364 3.2121316567956604 15.81987602207752 0 0 -1
3 1 3.195890245012486 0.06461253195440624 15.817601430269994 0 0 -1
143 1 3.1963076678827655 12.727954627175327 15.819269092301207 0 0 -1
6 1 7.9572643325570045 1.6514193966612112 1.5597168776735029 0 0 0
8 1 11.154984859893007 1.6818730315934112 1.5046521396058898 0 0 0
128 1 7.9632620410610695 7.967853808458268 1.5670454219495462 0 0 0
10 1 14.294632190286768 1.5768697384018542 1.5651340863084466 0 0 0
16 1 7.955232175142229 4.807708112075717 1.5659223079607434 0 0 0
18 1 11.072447696124632 4.783658046733676 1.6251065780465994 0 0 0
20 1 14.641613610022612 5.281682493815109 1.1050293932295716 0 0 0
159 1 7.922569591794177 1.6164327637647928 4.766362847604044 0 0 0
54 1 9.133491117499295 15.48266275592023 6.730433303760711 0 -1 0
118 1 9.542855907905652 9.555196243488096 3.1553713353234185 0 0 0
129 1 11.124393573368756 7.967074348913271 1.560956876665812 0 0 0
130 1 14.317462460884412 7.989651504938039 1.5302464666718454 0 0 0
185 1 14.305906974493272 14.299215814024189 4.737442348752532 0 0 0
222 1 11.126712689850804 11.132349700034082 7.909796444658132 0 0 0
138 1 11.129697056421502 11.135744207572516 1.571804108556947 0 0 0
140 1 14.304658446116932 11.137969755848111 1.5666634665563688 0 0 0
146 1 7.95296351617705 14.303510390939474 1.564323566147648 0 0 0
148 1 11.129791475934331 14.302977782380983 1.5670924051632829 0 0 0
150 1 14.300366683658297 14.2952597094724 1.5727706827752794 0 0 0
195 1 14.299615669503472 11.135837658527034 7.903960554241847 0 0 0
32 1 9.550042915022422 0.07175377633637604 3.0947099413849406 0 0 0
44 1 11.91995782128138 2.459496475466709 3.9270003455317406 0 0 0
35 1 14.345497915465831 1.668968890371341 4.711282099633596 0 0 0
41 1 7.949235551603694 4.813894369389691 4.739800991876137 0 0 0
42 1 9.480605199231347 3.1999224538489757 3.1770282505877785 0 0 0
227 1 13.34450458077669 3.8129644876003534 2.5430824998414017 0 0 0
43 1 11.150942370928744 4.866327200020463 4.718713278074474 0 0 0
46 1 14.290893384718505 4.800888661308714 4.795828113458453 -1 0 0
49 1 9.533787960661332 6.3975995041948455 3.1526991522265737 0 0 0
50 1 12.736756630104912 6.418793724865422 3.1120650723377232 0 0 0
153 1 7.954428328343434 7.974416236377043 4.7390445759149955 0 0 0
162 1 11.123464938836072 11.134186981788057 4.743436037415068 0 0 0
164 1 12.717700312869171 9.556145493439285 3.1471714807472155 0 0 0
154 1 11.131994448316991 7.979611620267918 4.732515685639346 0 0 0
155 1 14.30233294582941 7.973590790755868 4.730922417484248 0 0 0
70 1 14.311511698371962 14.3006259896425 7.910019139228919 0 -1 0
172 1 9.540827527659692 12.717021563892782 3.155097846645346 0 0 0
163 1 12.715808078206877 12.71512007965744 6.323906506071038 0 0 0
174 1 12.711780887987642 12.713507245668431 3.157865800623788 0 0 0
165 1 14.300532550209535 11.13607819732982 4.736060651502303 0 0 0
171 1 7.943569238871349 14.292487017630439 4.699682509336078 0 0 0
34 1 12.691255761147746 0.019736974874168513 3.177267678565628 0 0 0
173 1 11.104405592221074 14.270911164631665 4.763428867519731 0 0 0
33 1 10.549499861407677 1.058584166906713 5.325506388660754 0 0 0
184 1 9.513730579063871 12.701602922918255 6.351552412226637 0 0 0
55 1 12.77733460774433 0.0653690013324428 6.319209324097086 0 0 0
136 1 7.957134974509698 11.13743505547252 1.5753503092066954 0 0 0
59 1 9.546514761201436 3.284328988821737 6.318429639455232 0 0 0
60 1 12.690852234855376 3.2020728654692547 6.370011937755093 0 0 0
190 1 14.300743030177514 7.973106677728009 7.904564391766589 0 0 0
64 1 9.541993471535449 6.401769004885841 6.323358273975202 0 0 0
65 1 12.715784009150758 6.397740758055882 6.325380823142708 0 0 0
179 1 9.538445607658652 9.552878502541958 6.326548057147626 0 0 0
194 1 12.714408914720767 9.554640169628945 6.320454957267273 0 0 0
161 1 7.951659291675331 11.133485949895881 4.7420582662895265 0 0 0
239 1 14.305755858793706 1.6451610461742872 7.912631799823234 0 0 0
74 1 11.129050302693775 4.81373444121656 7.91154796311301 0 0 0
189 1 11.128866069873013 7.972713243940248 7.908245232694906 0 0 0
188 1 7.954539464671995 7.968729217680859 7.909558166942686 0 0 0
73 1 7.953367786102604 4.817884203666585 7.91261076967555 0 0 0
82 1 9.515123876631638 0.03562773732456878 9.512754306473488 0 0 0
84 1 12.714875017190703 0.062355331773426836 9.497594791652617 0 0 0
69 1 11.103603510764477 1.6204349117453491 7.943873793222444 0 0 0
199 1 11.169048204500344 14.294172053515181 7.917453545659366 0 0 0
92 1 9.54099248957168 3.227588771680272 9.502113175596483 0 0 0
94 1 12.712671243085264 3.224123704528774 9.504414897274298 0 0 0
24 1 9.55489654770058 6.371790680487997 15.79781303052838 0 0 -1
99 1 9.54434097911652 6.389878232553902 9.49774111129887 0 0 0
100 1 12.716568761539934 6.391683949373827 9.495410187917928 0 0 0
212 1 9.543146938458362 9.547084223315336 9.49377897171414 0 0 0
9 1 12.714982811216984 0.0634994009031365 15.807226188499211 0 0 -1
214 1 12.714156117739114 9.55159324338276 9.489611216353142 0 0 0
223 1 9.553095888228523 12.705104913875791 9.505794133828706 0 0 0
149 1 12.71604611542761 12.719408586215009 15.815619366528788 0 0 -1
224 1 12.720162691290371 12.715434517688989 9.494926195864 0 0 0
147 1 9.543018795515215 12.721867013396395 15.818298672073407 0 0 -1
107 1 9.538464695217145 0.06461585746476302 12.655993251512346 0 0 0
81 1 7.960440068022582 1.6502331332868354 11.085613194333563 0 0 0
83 1 11.124890599727419 1.6522467327733241 11.088973396052276 0 0 0
109 1 12.715452065663797 0.06975408960485213 12.653169908220844 0 0 0
85 1 14.293993294371976 1.6546944222268676 11.08103742739608 0 0 0
91 1 7.969697721481565 4.807962656013769 11.084625929017013 0 0 0
117 1 9.563203052850442 3.247973082400942 12.675623734836503 0 0 0
93 1 11.131195179731364 4.80884538112875 11.058104375819617 0 0 0
119 1 12.703355993541614 3.256278088844711 12.67455497089887 0 0 0
95 1 14.297819622571703 4.813735506747311 11.07940257438901 0 0 0
124 1 9.570124811268887 6.367676591619702 12.678901669047717 0 0 0
125 1 12.699326267151575 6.373911484260487 12.668996971739833 0 0 0
175 1 7.968510449927139 7.958904041577833 11.081164478060478 0 0 0
237 1 9.542043630745072 9.55234860269498 12.65028620536952 0 0 0
204 1 11.13049511382512 7.961276947937714 11.080574694678063 0 0 0
230 1 12.71832199348657 9.550583983604001 12.650903182616434 0 0 0
205 1 14.296150415189512 7.967524399522452 11.075338932687528 0 0 0
211 1 7.9586260968979285 11.129191580559866 11.07884878664744 0 0 0
247 1 9.541234577003822 12.719178208067111 12.658602271913999 0 0 0
213 1 11.132267463467635 11.131751760797803 11.076555707937539 0 0 0
249 1 12.715527615159777 12.722058411590252 12.65400205280217 0 0 0
215 1 14.299295229109866 11.137453676313969 11.070077490414503 0 0 0
221 1 7.936066841072943 14.286712092882171 11.092290714295128 0 0 0
197 1 11.126981469165855 14.30349760267019 11.078056744208654 0 0 0
225 1 14.299626195205594 14.3075269707039 11.072942951973195 0 0 0
7 1 9.543326500029085 0.07018206245869442 15.807365851907615 0 0 -1
106 1 7.965807220243595 1.6559162043198548 14.234866990328522 0 0 0
108 1 11.131202639676255 1.632910642156092 14.226553809582645 0 0 0
110 1 14.295871886915775 1.659156308578314 14.231098635802253 0 0 0
17 1 9.556325807499789 3.2516076122700968 15.79270287856262 0 0 -1
116 1 7.938307460402679 4.8084879373035285 14.234426471364817 0 0 0
19 1 12.713243905244545 3.2867065260625865 15.747117258492295 0 0 -1
120 1 14.362555715859045 4.845016482240355 14.20944357606584 0 0 0
236 1 7.9595221709391515 11.136757288827024 14.240150643181048 0 0 0
25 1 12.562846121336005 6.352917521802663 15.745807095751134 0 0 -1
228 1 7.9708011199730695 7.964084065813873 14.234063292878078 0 0 0
139 1 12.714008093622803 9.547672979420415 15.810673599082001 0 0 -1
229 1 11.114312872432897 8.011112265189599 14.218660132441324 0 0 0
200 1 14.28495740657365 7.9551152214774525 14.239777917923316 0 0 0
250 1 14.300459584482104 14.30732749422803 14.233465659951099 0 0 0
248 1 11.128521239243966 14.303660514800201 14.233753433577268 0 0 0
238 1 11.129694968911059 11.141719371887863 14.235288901761853 0 0 0
240 1 14.301649578457564 11.137270949927053 14.232421653231999 0 0 0
246 1 7.955123278737898 14.306048178171217 14.239064322826609 0 0 0
193 1 7.935865223344783 11.1171385960918 7.9262942821654585 0 0 0
31 1 7.942820577555211 1.6846292735208033 7.922169672845176 0 0 0
75 1 14.299442197196395 4.80760370931761 7.916319721638648 0 0 0
137 1 9.54175463207195 9.553402547140083 15.819027359565373 0 0 -1

Velocities

2 0 0 0
51 0 0 0
4 0 0 0
71 0 0 0
183 0 0 0
12 0 0 0
14 0 0 0
166 0 0 0
181 0 0 0
126 0 0 0
158 0 0 0
66 0 0 0
191 0 0 0
132 0 0 0
134 0 0 0
72 0 0 0
177 0 0 0
142 0 0 0
144 0 0 0
26 0 0 0
27 0 0 0
29 0 0 0
28 0 0 0
30 0 0 0
37 0 0 0
36 0 0 0
38 0 0 0
39 0 0 0
40 0 0 0
180 0 0 0
47 0 0 0
48 0 0 0
151 0 0 0
156 0 0 0
152 0 0 0
22 0 0 0
160 0 0 0
157 0 0 0
186 0 0 0
168 0 0 0
170 0 0 0
45 0 0 0
167 0 0 0
169 0 0 0
176 0 0 0
187 0 0 0
52 0 0 0
53 0 0 0
56 0 0 0
182 0 0 0
57 0 0 0
178 0 0 0
58 0 0 0
61 0 0 0
62 0 0 0
63 0 0 0
192 0 0 0
196 0 0 0
67 0 0 0
76 0 0 0
78 0 0 0
141 0 0 0
68 0 0 0
86 0 0 0
88 0 0 0
90 0 0 0
96 0 0 0
97 0 0 0
98 0 0 0
206 0 0 0
208 0 0 0
210 0 0 0
216 0 0 0
218 0 0 0
220 0 0 0
80 0 0 0
198 0 0 0
77 0 0 0
101 0 0 0
79 0 0 0
103 0 0 0
219 0 0 0
87 0 0 0
111 0 0 0
89 0 0 0
113 0 0 0
115 0 0 0
121 0 0 0
122 0 0 0
123 0 0 0
201 0 0 0
231 0 0 0
233 0 0 0
202 0 0 0
203 0 0 0
207 0 0 0
241 0 0 0
209 0 0 0
243 0 0 0
245 0 0 0
217 0 0 0
105 0 0 0
102 0 0 0
104 0 0 0
112 0 0 0
1 0 0 0
114 0 0 0
135 0 0 0
21 0 0 0
127 0 0 0
226 0 0 0
131 0 0 0
235 0 0 0
5 0 0 0
232 0 0 0
234 0 0 0
242 0 0 0
244 0 0 0
23 0 0 0
13 0 0 0
15 0 0 0
145 0 0 0
133 0 0 0
11 0 0 0
3 0 0 0
143 0 0 0
6 0 0 0
8 0 0 0
128 0 0 0
10 0 0 0
16 0 0 0
18 0 0 0
20 0 0 0
159 0 0 0
54 0 0 0
118 0 0 0
129 0 0 0
130 0 0 0
185 0 0 0
222 0 0 0
138 0 0 0
140 0 0 0
146 0 0 0
148 0 0 0
150 0 0 0
195 0 0 0
32 0 0 0
44 0 0 0
35 0 0 0
41 0 0 0
42 0 0 0
227 0 0 0
43 0 0 0
46 0 0 0
49 0 0 0
50 0 0 0
153 0 0 0
162 0 0 0
164 0 0 0
154 0 0 0
155 0 0 0
70 0 0 0
172 0 0 0
163 0 0 0
174 0 0 0
165 0 0 0
171 0 0 0
34 0 0 0
173 0 0 0
33 0 0 0
184 0 0 0
55 0 0 0
136 0 0 0
59 0 0 0
60 0 0 0
190 0 0 0
64 0 0 0
65 0 0 0
179 0 0 0
194 0 0 0
161 0 0 0
239 0 0 0
74 0 0 0
189 0 0 0
188 0 0 0
73 0 0 0
82 0 0 0
84 0 0 0
69 0 0 0
199 0 0 0
92 0 0 0
94 0 0 0
24 0 0 0
99 0 0 0
100 0 0 0
212 0 0 0
9 0 0 0
214 0 0 0
223 0 0 0
149 0 0 0
224 0 0 0
147 0 0 0
107 0 0 0
81 0 0 0
83 0 0 0
109 0 0 0
85 0 0 0
91 0 0 0
117 0 0 0
93 0 0 0
119 0 0 0
95 0 0 0
124 0 0 0
125 0 0 0
175 0 0 0
237 0 0 0
204 0 0 0
230 0 0 0
205 0 0 0
211 0 0 0
247 0 0 0
213 0 0 0
249 0 0 0
215 0 0 0
221 0 0 0
197 0 0 0
225 0 0 0
7 0 0 0
106 0 0 0
108 0 0 0
110 0 0 0
17 0 0 0
116 0 0 0
19 0 0 0
120 0 0 0
236 0 0 0
25 0 0 0
228 0 0 0
139 0 0 0
229 0 0 0
200 0 0 0
250 0 0 0
248 0 0 0
238 0 0 0
240 0 0 0
246 0 0 0
193 0 0 0
31 0 0 0
75 0 0 0
137 0 0 0
