LAMMPS data file via write_data, version 22 Jul 2025, timestep = 43576, units = metal

250 atoms
1 atom types

-0.02109723703891261 15.847075237038968 xlo xhi
0 15.825978000000001 ylo yhi
0 15.825978000000001 zlo zhi

Masses

1 183.841

Atoms # atomic

11 1 1.6808160147119886 1.437356976684439 1.601484146319404 0 0 0
4 1 4.8404795217116625 1.397863831645554 1.605688562284671 0 0 0
180 1 1.6921132099944267 4.594758029778811 1.5933924044661485 0 0 0
14 1 4.869305681596535 4.590061622572344 1.5931761025741993 0 0 0
9 1 6.457671429029364 12.500167709638866 6.328243876569121 0 -1 0
15 1 6.4320602009187375 2.9826507202318067 0.03547383867111668 0 0 0
131 1 1.6983651897429453 7.74949216161696 1.5873948274468987 0 0 0
132 1 4.872193808944197 7.7527881125982345 1.587882094492082 0 0 0
13 1 3.2720553906265253 3.050110785939724 0.012999280440194843 0 0 0
182 1 3.2875551505185614 12.50080733848561 6.332662237447935 0 0 0
207 1 1.6903174823491163 10.894517753260208 1.5921689314989165 0 0 0
134 1 4.869020590303645 10.909636826800648 1.586569201749521 0 0 0
142 1 3.2632383238121783 12.479930330358018 0.019927250211382332 0 0 0
133 1 3.2828832725268815 9.330682405162975 0.0019306700462110632 0 0 0
46 1 1.565592128227222 13.951820080384918 1.7138278944008585 -1 0 0
196 1 3.2825169656709865 15.66468724846342 6.3310314664415905 0 0 0
83 1 4.881804001656535 14.067997509485437 1.5975752526307836 0 0 0
3 1 3.0199824884127673 15.406433084384865 0.2620664461581851 0 -1 0
227 1 4.871519894721212 1.43166483164766 7.899087035201163 0 0 0
52 1 1.6940038868477223 1.4293054504535216 4.751824192230246 0 0 0
185 1 4.866497265732384 1.4261260220395597 4.747777255507287 0 1 0
37 1 1.7200282953879955 4.6094191368317725 4.767481115402285 0 0 0
38 1 0.11525625723661305 3.017561997239932 3.1761281055584405 0 0 0
116 1 3.2804222818961852 3.0156765344765164 3.1804830998509233 0 0 0
152 1 4.851471308851511 4.609069470601054 4.765824881480912 0 0 0
40 1 6.44469862436861 3.010525471593182 3.176444472253552 0 0 0
126 1 0.12446905081728828 6.169446438132989 3.1727492121004004 0 0 0
157 1 1.7264953751427188 7.7289943000349615 4.765133183365384 1 0 0
47 1 3.2865734755879643 6.169676945555115 3.148571463239001 0 0 0
212 1 4.853322920587636 7.731966066630907 4.764354915150743 0 0 0
48 1 6.4484210484493385 6.171488799356079 3.174673651044741 0 0 0
156 1 0.12164785560760383 9.315627005378808 3.171209669934493 0 0 0
22 1 3.2878752826064295 9.318996511822101 3.175538616925134 0 0 0
160 1 6.4509731581427525 9.326637150731647 3.1702461828466246 0 0 0
166 1 0.07289935895408339 12.460431826558192 3.202964173304808 0 0 0
176 1 1.7101687087519921 10.911868959970473 4.745064745600864 0 0 0
170 1 4.873897907381433 10.911281175003776 4.746130306515404 0 0 0
232 1 3.2874205122371807 12.489249398798457 3.1738349246556954 0 0 0
45 1 6.459233155567001 12.495579755488064 3.1675891184727694 0 0 0
26 1 0.10119871601448499 15.671406500645544 3.1738302233405333 0 -1 0
167 1 1.6887353077743248 14.075374454783965 4.765517105223016 0 0 0
169 1 3.263061900343872 15.648508631154858 3.185140104883487 0 0 0
192 1 4.87027104618577 14.080713493162978 4.751129571454915 0 0 0
159 1 6.454683879834816 15.665285402523383 3.168820477631324 0 -1 0
34 1 6.45614263109574 15.669014158881977 6.326236419076333 0 -1 0
1 1 0.08887936124761547 15.646159522556928 0.020108665657287108 0 -1 0
70 1 1.7181482189713508 4.610026014666968 7.887719236621309 0 -1 0
71 1 0.12358040891825765 3.0189144042034783 6.328241248662604 0 0 0
57 1 3.2833089409222187 2.9900553348494605 6.325940962934026 0 0 0
72 1 4.843376589861132 4.6103662020647755 7.8794488321797 0 0 0
41 1 6.449854572047147 3.021208756651714 6.319042945449365 0 0 0
75 1 0.10251584041295286 6.172085955903729 6.323128292192186 1 0 0
186 1 1.7258823296362638 7.73434289684069 7.8864257211023565 0 0 0
210 1 4.838053556772089 7.734937411259762 7.882308585971627 0 0 0
63 1 6.4743638942429875 6.173194331457902 6.319816764899008 0 0 0
61 1 0.14793272311737962 9.333532388496275 6.317961639154848 0 0 0
177 1 3.2894141862961375 9.354457249245765 6.325974023014234 0 0 0
19 1 6.441945138100886 9.330498505106245 6.321429790380911 0 0 0
78 1 0.11110765147759312 15.672260271797336 6.332933386963353 1 -1 0
174 1 0.11410919587096631 12.499943073381875 6.338616785130627 1 0 0
135 1 6.456716419113435 6.176328769182841 0.005411496911428426 0 0 0
127 1 3.2811303324030647 6.1808989224322 0.000986870639937155 0 0 0
2 1 0.10604376853666005 3.005037781672837 0.003677361907111007 1 0 1
144 1 6.501255324638758 15.657928856717984 0.008139204392878845 0 0 0
80 1 4.872191518446015 14.08327819305961 7.910109548943562 0 -1 0
121 1 4.873205677006058 10.913692507277585 7.910394144447596 0 0 0
145 1 6.454982429320691 12.495618225841406 0.001988360810861092 0 0 0
51 1 1.6968458618710296 1.4312374173833575 7.909872077525446 0 0 0
191 1 1.7051904850873167 10.914584448885726 7.911985619614075 0 0 0
86 1 0.11922703588939093 3.016295140798615 9.483594236940831 0 0 0
67 1 3.278356011910788 3.0178748984256525 9.475352379192616 0 0 0
168 1 6.469864420888611 3.0416384291458654 9.429421056080988 0 0 0
222 1 0.12706863687307896 6.176159227476858 9.476415208373657 0 0 0
178 1 3.275601693929645 6.169263832897404 9.510385603839657 0 0 0
98 1 6.382099876256983 6.16381923611648 9.4840551084857 0 0 0
203 1 0.1288086973366459 9.332394987843639 9.4827398436318 1 0 0
248 1 3.286238423356569 9.326549781137967 9.481642332149292 0 0 0
209 1 6.448453752469321 9.333571491755615 9.48183094011889 0 0 0
216 1 0.1143545262668768 12.501637289205554 9.49335363524123 0 0 0
218 1 3.28641712287264 12.498448250866483 9.49240042283147 0 0 0
220 1 6.458376004668006 12.499203785890924 9.491223067365246 0 0 0
24 1 0.11122071775063422 15.67060556683186 9.492962821323 0 -1 -1
76 1 3.2813567197323192 15.6666056318183 9.481288579957646 0 -1 0
50 1 6.456874814607743 15.66355296138325 9.485337647892257 0 0 0
77 1 1.6937403203262837 1.424708674676926 11.071737044409202 0 0 0
79 1 4.877808514296692 1.4354764933988466 11.011644831218836 0 0 0
187 1 1.6899959659628174 4.585916019885343 11.071593622857717 0 0 0
87 1 0.10791680843815735 3.002407289283831 12.660927624953127 0 0 0
102 1 3.2493830394336465 2.9820713517409225 12.68113168405172 0 0 0
140 1 4.821820137489141 4.563674785460655 11.091969596389038 0 0 0
55 1 7.244366937807493 3.78555644343384 11.86676907264846 0 0 0
125 1 0.1126761765896789 6.171585533677329 12.654082176039791 1 0 0
201 1 1.6984680294623766 7.754759670380567 11.068123456393746 0 0 0
123 1 4.866304149513315 7.759174780448496 11.06815810678874 0 0 0
113 1 3.27917703701669 6.175835930983843 12.65826405784847 0 0 0
129 1 6.4791440687595765 6.219214365529234 12.631695503426883 0 0 0
231 1 0.11396275935758923 9.334761179424955 12.654921824617324 0 0 0
233 1 3.2842373313047015 9.33574777893464 12.655831373261861 0 0 0
25 1 6.460125360414711 9.343743202095931 12.65295717380291 0 0 -1
190 1 1.7013474451031494 10.915845619897 11.073347755984626 1 0 0
208 1 0.10777268458698396 12.496719007296818 12.65506732936364 0 0 0
200 1 4.870518137354465 10.917244880792703 11.073310713097687 0 0 0
143 1 3.280732233679878 12.495755452209883 12.65983120202269 0 0 -1
245 1 6.452449269487979 12.496859444465812 12.662022290980842 0 0 0
217 1 1.6926730473157778 14.078613595384168 11.068887644258846 0 0 0
223 1 0.10628067743985568 15.663807054983526 12.6596778222562 1 -1 0
105 1 4.8692250157121375 14.079212292202016 11.073141337418283 0 -1 0
81 1 3.2735870367027413 15.657049219661245 12.61527003844838 0 0 0
244 1 6.43301386175959 15.632008430197256 12.681697758694032 0 0 0
111 1 1.6754748006186078 1.3949926515986748 14.270768721707272 0 0 0
31 1 4.446915840033247 1.0024518392687867 14.665695153336557 0 1 0
5 1 5.855418448435228 2.405018367123455 13.259507596517993 0 0 -1
110 1 1.6920086061484523 4.589510912213222 14.242776210825685 1 0 0
27 1 4.84194359173167 14.062944384749066 14.270089805154283 0 0 0
114 1 4.876799642669198 4.647971279357764 14.235373278895048 0 0 0
242 1 1.6802965335034887 14.06679323765509 14.231173168540664 0 0 0
122 1 1.6970593811725685 7.753226569417553 14.239881667902216 0 0 0
235 1 4.872476363808625 7.763381221871063 14.239524165075183 0 0 0
234 1 4.8664600023724605 10.915670303846392 14.245189077228622 0 0 0
141 1 0.11079709360138869 9.329603499954807 15.82283617505415 0 0 -1
49 1 1.694729700839451 10.911444615855698 14.241972405336018 0 0 -1
150 1 0.10107891209126517 12.4903811311082 15.821904389939709 1 0 -1
97 1 1.6977682301150134 14.084210033141433 7.913526018566163 0 0 0
158 1 6.4569367337706325 9.336242337157787 15.825932187074228 0 0 -1
12 1 0.11180262013804763 6.169882949772026 15.824596361564002 1 0 -2
146 1 8.043431340847787 1.4249090462301888 1.588042359667308 0 1 0
8 1 11.21794751090201 1.425788045981535 1.5816673128088685 0 0 0
106 1 14.38769828333131 1.425341232088699 1.5864433148082808 0 1 0
17 1 8.039555882920267 4.587766948189203 1.5910612767268661 0 0 0
171 1 8.043032568533004 14.08563413015653 4.746179963539046 0 0 0
243 1 11.219816448335934 4.590460042169636 1.5813665935154269 0 0 0
225 1 14.394317349301328 4.589868433804919 1.5815545050256008 0 1 1
128 1 8.04313955569798 7.753602620130234 1.5833254673367414 0 0 0
28 1 9.630245343558931 6.170733042056056 0.006902720732516487 0 0 0
229 1 11.220990200571775 7.75562318016897 1.5767011693954733 0 0 1
163 1 12.815369295941323 12.521428991796718 6.318647524292725 0 0 0
130 1 14.39717496925373 7.750052647859765 1.577056529412673 0 0 0
198 1 8.044663847291133 14.083671983798979 7.908007106267675 0 0 0
16 1 14.395505240845736 14.090337961006057 7.911717143377243 0 0 0
69 1 9.630489243410697 15.66903048262576 6.325842600967148 0 -1 0
137 1 9.631160806295293 9.339366864941626 3.1570149253807243 0 0 0
136 1 8.04167824826124 10.915681988410931 1.5811141060916578 0 0 0
164 1 14.393812370009858 10.915402252639174 1.5714180248450182 0 0 0
112 1 8.049585725674849 14.078532431022008 1.5865585411110243 0 0 0
224 1 11.214428732729298 14.083799574044559 1.5809377533974103 0 -1 0
101 1 14.3704916876362 14.074764310852707 1.590349955741426 -1 -1 1
54 1 8.041411553010256 1.4270399965912848 4.745769059385121 0 0 0
44 1 11.217621392062647 1.4270829579747724 4.744125392633553 0 0 0
56 1 14.393686244142796 1.4289604644432545 4.747674812079934 -1 0 0
42 1 9.629983263054484 3.008835941888439 3.164012010846596 0 0 0
64 1 8.044215066920437 4.594719118745791 4.741161700064014 0 0 0
36 1 12.806553882624174 3.0088554601045634 3.1623339357080464 -1 0 0
59 1 11.223572794048088 4.592447724732653 4.739050866688907 0 0 0
65 1 14.403504202026186 4.588219731919432 4.741125985437917 0 0 0
88 1 9.634172370475733 6.176304061822788 3.1617075253548856 0 0 0
161 1 8.04149108683891 7.757547665411471 4.740243096856561 0 0 0
35 1 12.812474139635919 6.173093687093263 3.1575007391477725 0 0 0
181 1 11.239616844419706 7.775189372244633 4.72417725300559 0 0 0
155 1 14.41079975052872 7.751090835458222 4.7353916566860494 0 0 0
154 1 12.816546940070683 9.343957810737693 3.14312445244474 0 0 0
66 1 9.62891369676229 12.502030711532976 3.161972760835451 0 0 0
172 1 8.040426605545033 10.920640837423454 4.741947184169429 0 0 0
162 1 11.216335383492574 10.926497886456449 4.736923989339784 0 0 0
138 1 11.216130389281558 10.9196253206448 1.5751905152916568 0 0 0
165 1 14.430317168771486 10.950784628426566 4.711299388357145 0 0 0
32 1 9.629276416850553 15.669333924996517 3.164194794405067 0 -1 0
214 1 11.239832815986027 10.938411106868285 7.888081713138784 0 0 0
103 1 12.800198317257067 15.670542612783384 3.1648868481992647 -1 -2 0
30 1 11.216027373228785 14.089927557308403 4.743673259136854 0 0 0
62 1 12.794163332364592 12.500803981643667 3.1632495076106872 0 0 0
197 1 14.392289151363483 14.0954959690774 4.746383817471497 0 -1 0
33 1 12.806894772552532 15.672221102194333 6.32680784669365 0 -1 0
184 1 9.632263990881427 12.507238018590401 6.323414713693027 0 0 0
194 1 12.934843838813824 9.458204823338928 6.202117708461053 0 0 0
149 1 8.063223185460352 4.61495418377503 7.8736839759869 0 0 -1
90 1 9.631677918306714 3.0081433925860876 6.321314888617657 0 0 0
60 1 12.814916684679858 3.0037052698690836 6.320518278088657 0 0 0
195 1 14.406760048835359 10.926422818547636 7.9105017024595705 0 0 0
199 1 11.221180703407544 14.088557771922108 7.907144355851899 0 0 0
68 1 8.042670849788639 1.4224543891143713 7.902736940312462 0 0 0
175 1 9.662602944443112 6.201257748323818 6.306902150103825 0 0 0
92 1 12.82371807664072 6.165157038704883 6.310055271228994 0 0 0
43 1 14.425629956205281 7.775378285170011 7.888516608223528 0 0 0
118 1 9.617689061883011 9.350956434377437 6.311001274885559 0 0 0
189 1 11.471098740845347 8.009874414671124 7.657796146817445 0 0 0
193 1 8.044941127487805 10.921396041188684 7.904413857891916 0 0 0
91 1 11.222185021003991 1.4170127311536047 7.905712457481204 0 0 0
239 1 14.396428089620567 1.428882564878011 7.9094156331039205 0 0 0
179 1 7.996709660853295 7.762377188386507 7.901307209665703 0 0 0
18 1 9.636167671229183 3.007795554932917 0.003061933620397059 0 0 0
206 1 14.405683408560224 4.592614719521273 7.904886710003814 0 0 0
99 1 11.232992527354686 4.548952165977803 7.895186814592929 0 0 0
109 1 9.64108090128981 15.66483862222082 0.0008094184412230641 0 -1 1
53 1 9.622926022427196 2.9527850406179876 9.497963438525906 0 -1 0
74 1 8.62257633521572 5.186273441732644 10.480701452437469 0 0 0
94 1 12.813289691625316 3.008316723827481 9.489005378627969 0 0 0
104 1 10.044754496958117 6.581741491111083 9.078727254628596 0 0 0
100 1 12.831954302102073 6.202503560265897 9.459866851315045 0 0 0
119 1 9.659390569858973 9.356270719726442 9.46177493360418 0 0 0
73 1 12.827734348917105 9.354321231078163 9.499191252380044 0 0 0
221 1 9.636042266038286 12.503179428070888 9.48663450088728 0 0 0
213 1 12.811055309650927 12.507896279844157 9.490047545219943 0 0 0
39 1 9.631138764570789 15.658154723204568 9.491543839209019 0 0 0
84 1 12.808044874265995 15.66931450905531 9.491990330150342 0 -1 0
107 1 8.02101846682566 1.37059093999863 11.094948323295991 0 0 0
120 1 11.224673880447725 1.4210684264975064 11.073067174112692 0 0 0
188 1 14.395784870244936 1.4270945114825275 11.073166148408811 0 0 0
20 1 9.681260005070454 3.0329161680731076 12.630941735283656 0 0 0
93 1 11.250760922029846 4.61833064876776 11.045357668998989 0 0 0
228 1 12.81482815079236 3.011778055759132 12.652439566589631 0 0 0
96 1 14.399701311250697 4.596629032933435 11.066241125480545 -1 0 0
124 1 9.626333146747232 6.166774190024264 12.713017865444705 0 0 0
151 1 8.066957044719073 7.7900676587564055 11.047941941844572 1 0 0
204 1 11.232786616706646 7.768196604588287 11.111931574307045 0 0 0
183 1 12.812524096682438 6.174369515821204 12.655950607358962 0 0 1
89 1 14.40248139118999 7.757604052076013 11.06920926886568 0 0 0
237 1 9.633938762489061 9.342264082599877 12.657045089184818 0 0 0
230 1 12.813498187568648 9.342720497088933 12.661400228296111 0 0 0
211 1 8.048094712415082 10.920542763432376 11.06699419522006 0 0 0
247 1 9.631461722885652 12.50036964644414 12.655652780221244 0 0 0
205 1 11.2238132041012 10.924345652774035 11.070774098873914 0 0 0
6 1 12.805606377483198 12.502322935628845 12.655781785475275 0 0 0
215 1 14.400455952458165 10.921677680563903 11.07425561648993 0 0 0
82 1 8.041736897417566 14.075339010910799 11.076591438626098 0 -1 0
7 1 9.637328654991638 15.661795666281746 12.656825129542728 0 -1 -1
249 1 11.220203906342036 14.083868351267432 11.073489360954651 0 0 0
58 1 12.807406070134912 15.667457051111283 12.65698068964696 0 0 0
108 1 14.392735297909187 14.08592684918852 11.074912806277549 0 0 0
219 1 8.105233965709411 1.432961755758959 14.231530324582641 0 0 0
85 1 11.229299805244365 1.4262749453393009 14.238498719477388 0 0 0
23 1 14.390428638025108 1.420479858078518 14.244754563218898 0 0 0
153 1 8.019949268779845 4.565456573377081 14.288808334336048 0 0 0
117 1 11.22446466718105 4.590266851125858 14.243926555920195 0 0 0
147 1 9.629497251275728 12.499908334999452 15.822463994756436 0 0 -1
95 1 14.394256570027698 4.5890490587621455 14.239800842329203 0 0 0
202 1 8.044286906472784 7.758959145579761 14.24461472077024 0 0 0
173 1 11.2227773910953 7.757842619746502 14.248769106020674 0 0 0
226 1 14.395163940866276 7.752554854489335 14.238366039788586 -1 0 0
115 1 11.218327074381424 14.083221903421721 14.239483244550623 0 0 0
236 1 8.04339044428881 10.918963618877452 14.240010964912111 0 0 0
238 1 11.217938296281588 10.919991439553634 14.238424826236397 0 0 0
240 1 14.392131539769101 10.916945834522496 14.238291077882417 0 0 0
246 1 8.045602822459363 14.078739629756816 14.241960814309296 0 0 0
241 1 14.386079208283903 14.080475205240255 14.241599903405596 0 0 0
29 1 9.630578688204645 9.337159549678956 15.822879731012364 0 0 0
148 1 12.800333111816698 12.49924137700413 15.821329542507485 0 0 -1
139 1 12.807137001948448 9.336353055074694 15.819977882955095 0 0 -1
21 1 12.807906573741574 6.171147324312404 15.82270636707465 -1 0 -1
250 1 12.801847322542239 15.665924164610425 15.82577080423418 0 0 0
10 1 12.807175577487461 3.0073292115480914 15.824369296948268 0 0 -1

Velocities

11 0 0 0
4 0 0 0
180 0 0 0
14 0 0 0
9 0 0 0
15 0 0 0
131 0 0 0
132 0 0 0
13 0 0 0
182 0 0 0
207 0 0 0
134 0 0 0
142 0 0 0
133 0 0 0
46 0 0 0
196 0 0 0
83 0 0 0
3 0 0 0
227 0 0 0
52 0 0 0
185 0 0 0
37 0 0 0
38 0 0 0
116 0 0 0
152 0 0 0
40 0 0 0
126 0 0 0
157 0 0 0
47 0 0 0
212 0 0 0
48 0 0 0
156 0 0 0
22 0 0 0
160 0 0 0
166 0 0 0
176 0 0 0
170 0 0 0
232 0 0 0
45 0 0 0
26 0 0 0
167 0 0 0
169 0 0 0
192 0 0 0
159 0 0 0
34 0 0 0
1 0 0 0
70 0 0 0
71 0 0 0
57 0 0 0
72 0 0 0
41 0 0 0
75 0 0 0
186 0 0 0
210 0 0 0
63 0 0 0
61 0 0 0
177 0 0 0
19 0 0 0
78 0 0 0
174 0 0 0
135 0 0 0
127 0 0 0
2 0 0 0
144 0 0 0
80 0 0 0
121 0 0 0
145 0 0 0
51 0 0 0
191 0 0 0
86 0 0 0
67 0 0 0
168 0 0 0
222 0 0 0
178 0 0 0
98 0 0 0
203 0 0 0
248 0 0 0
209 0 0 0
216 0 0 0
218 0 0 0
220 0 0 0
24 0 0 0
76 0 0 0
50 0 0 0
77 0 0 0
79 0 0 0
187 0 0 0
87 0 0 0
102 0 0 0
140 0 0 0
55 0 0 0
125 0 0 0
201 0 0 0
123 0 0 0
113 0 0 0
129 0 0 0
231 0 0 0
233 0 0 0
25 0 0 0
190 0 0 0
208 0 0 0
200 0 0 0
143 0 0 0
245 0 0 0
217 0 0 0
223 0 0 0
105 0 0 0
81 0 0 0
244 0 0 0
111 0 0 0
31 0 0 0
5 0 0 0
110 0 0 0
27 0 0 0
114 0 0 0
242 0 0 0
122 0 0 0
235 0 0 0
234 0 0 0
141 0 0 0
49 0 0 0
150 0 0 0
97 0 0 0
158 0 0 0
12 0 0 0
146 0 0 0
8 0 0 0
106 0 0 0
17 0 0 0
171 0 0 0
243 0 0 0
225 0 0 0
128 0 0 0
28 0 0 0
229 0 0 0
163 0 0 0
130 0 0 0
198 0 0 0
16 0 0 0
69 0 0 0
137 0 0 0
136 0 0 0
164 0 0 0
112 0 0 0
224 0 0 0
101 0 0 0
54 0 0 0
44 0 0 0
56 0 0 0
42 0 0 0
64 0 0 0
36 0 0 0
59 0 0 0
65 0 0 0
88 0 0 0
161 0 0 0
35 0 0 0
181 0 0 0
155 0 0 0
154 0 0 0
66 0 0 0
172 0 0 0
162 0 0 0
138 0 0 0
165 0 0 0
32 0 0 0
214 0 0 0
103 0 0 0
30 0 0 0
62 0 0 0
197 0 0 0
33 0 0 0
184 0 0 0
194 0 0 0
149 0 0 0
90 0 0 0
60 0 0 0
195 0 0 0
199 0 0 0
68 0 0 0
175 0 0 0
92 0 0 0
43 0 0 0
118 0 0 0
189 0 0 0
193 0 0 0
91 0 0 0
239 0 0 0
179 0 0 0
18 0 0 0
206 0 0 0
99 0 0 0
109 0 0 0
53 0 0 0
74 0 0 0
94 0 0 0
104 0 0 0
100 0 0 0
119 0 0 0
73 0 0 0
221 0 0 0
213 0 0 0
39 0 0 0
84 0 0 0
107 0 0 0
120 0 0 0
188 0 0 0
20 0 0 0
93 0 0 0
228 0 0 0
96 0 0 0
124 0 0 0
151 0 0 0
204 0 0 0
183 0 0 0
89 0 0 0
237 0 0 0
230 0 0 0
211 0 0 0
247 0 0 0
205 0 0 0
6 0 0 0
215 0 0 0
82 0 0 0
7 0 0 0
249 0 0 0
58 0 0 0
108 0 0 0
219 0 0 0
85 0 0 0
23 0 0 0
153 0 0 0
117 0 0 0
147 0 0 0
95 0 0 0
202 0 0 0
173 0 0 0
226 0 0 0
115 0 0 0
236 0 0 0
238 0 0 0
240 0 0 0
246 0 0 0
241 0 0 0
29 0 0 0
148 0 0 0
139 0 0 0
21 0 0 0
250 0 0 0
10 0 0 0
