LAMMPS data file via write_data, version 22 Jul 2025, timestep = 18188, units = metal

250 atoms
1 atom types

-0.021125899673549973 15.84710389967356 xlo xhi
0 15.825978000000001 ylo yhi
0 15.825978000000001 zlo zhi

Masses

1 183.841

Atoms # atomic

11 1 1.7093618055063102 1.5711949117453352 1.5513075597288988 0 0 0
4 1 4.887858025420582 1.5583189271088906 1.571290644379366 0 0 0
12 1 1.702852182173504 4.724624334894594 1.5608139110102528 0 0 0
14 1 4.884892857279936 4.722183452306962 1.5711654629813454 0 0 0
126 1 1.7049532662581919 7.878194106616043 1.5628730396007058 0 0 0
132 1 4.879415750315281 7.883457507548367 1.5686282613399338 0 0 0
46 1 1.7231196027864382 11.052726847451007 1.5708014199256952 -1 0 0
134 1 4.884278269302332 11.048519202696937 1.5655498862388455 0 0 0
142 1 1.7196234453857162 14.221329802451843 1.5646019315303963 0 0 0
144 1 4.888375631080131 14.218929792486758 1.569961996522576 0 0 0
52 1 1.724522563755779 1.570381009756804 4.69139885015336 0 0 0
26 1 0.11878211497546552 15.798430279323432 3.0888673937388265 0 -1 0
58 1 4.893749856764247 1.5636118073406005 4.7377743490304445 0 0 0
38 1 0.1299925727482951 3.1475154460356776 3.145135857240739 0 0 0
37 1 1.717591623237847 4.728887930571786 4.736015186686345 0 0 0
39 1 4.89302291827007 4.728511403188616 4.732788506626139 0 0 0
185 1 3.305183583336207 3.1486539940162874 3.14501127756217 0 1 0
40 1 6.476716377210634 3.140702454769149 3.152882326871624 0 0 0
180 1 0.12751518705499726 6.30466355212645 3.147413220510322 0 0 0
151 1 1.714707800504099 7.8861989558876004 4.734648280124976 1 0 0
47 1 3.2979625668636947 6.305352124936021 3.151543873808713 0 0 0
152 1 4.886759499430239 7.888608090496142 4.734233522839007 0 0 0
48 1 6.4720472787393035 6.30200188589735 3.1527146800454435 0 0 0
156 1 0.13125226088860825 9.46232034166529 3.1506353541229473 0 0 0
22 1 3.2996256500575405 9.467449325599995 3.150506108610653 0 0 0
160 1 6.469498212454472 9.465489421494224 3.1491683132485027 0 0 0
157 1 1.7199247300681058 11.048036528500583 4.735435192486356 0 0 0
166 1 0.17760015207023083 12.661173323780844 3.1768628181667267 0 0 0
170 1 4.888486666786711 11.052990853830961 4.734363283183891 0 0 0
232 1 3.3095121808708896 12.639551835239986 3.155683085075295 0 0 0
45 1 6.471217894494114 12.630812223146458 3.1472235871997754 0 0 0
167 1 1.7511708121338918 14.245745118505054 4.761004144698057 0 0 0
169 1 3.3050060114299535 15.806406616453678 3.1500272302089414 0 0 0
192 1 4.892451720713916 14.22524441879354 4.740783305297775 0 0 0
159 1 6.474844136280567 15.802451813422408 3.153331009983631 0 -1 0
51 1 0.5558930480888368 0.40486082312698224 6.748279441137389 0 0 0
34 1 6.478350071672277 15.80712691952531 6.323524448040255 0 -1 0
56 1 0.1575963924854891 3.162659621917509 6.347892997531226 0 0 0
57 1 3.3194965952633395 3.1598959056755787 6.307152684751633 0 0 0
72 1 4.898535103692972 4.733334294746944 7.900910782729087 0 0 0
41 1 6.482895846019221 3.1455904163216024 6.319957916652406 0 0 0
61 1 0.13280676197878996 6.30787448349477 6.323274895573092 0 0 0
186 1 1.7160650135571565 7.890754086345337 7.9056247614737085 0 0 0
178 1 4.889593550872503 7.893178078111398 7.899855512963308 0 0 0
62 1 3.304841737095891 6.311715107459291 6.320216839234877 0 0 0
63 1 6.477131036252064 6.306978113280454 6.316581626669561 0 0 0
176 1 0.1265481594320184 9.459834663085074 6.317713032459114 0 0 0
177 1 3.3021367099820855 9.470677240025266 6.318123719416911 0 0 0
161 1 6.47423651121827 9.471394434762828 6.316826806086145 0 0 0
191 1 1.7175315261548176 11.043349622332428 7.905818692686355 0 0 0
174 1 0.12087449903208287 12.577408567801946 6.311717082453309 1 0 0
210 1 4.88912546784419 11.054711623782014 7.90105479748173 0 0 0
182 1 3.3072655732074683 12.635849337967485 6.320976268380065 0 0 0
9 1 6.474809461412328 12.637263474377166 6.31863231696437 0 -1 0
196 1 3.324239464174129 0.007094681928440168 6.349010416485797 0 1 0
80 1 4.893849507104732 14.222842887545387 7.906914587457735 0 -1 0
35 1 1.980797388290212 1.8288693194288068 8.168495336535102 0 0 0
24 1 0.15604633296040266 0.008994595542297312 9.510080342402286 0 0 -1
86 1 0.11708807331165827 3.1578173081863676 9.508899319287742 0 0 0
71 1 1.7350432656859172 4.743274282398392 7.92573973273218 0 0 0
66 1 3.4310269942838016 3.2796292448279103 9.625015072904576 0 0 0
90 1 6.49882155494334 3.151747494053941 9.495453990727697 0 0 0
96 1 0.1292577121501191 6.3112812586721585 9.494762782015826 0 0 0
187 1 3.3087057891734992 6.3249727833518765 9.496514515760055 0 0 0
98 1 6.4773306551536525 6.30683688444458 9.474500104607577 0 0 0
206 1 0.12604127706462728 9.468450546659055 9.488304067069095 0 0 0
208 1 3.2997201809479466 9.472270456357125 9.487096407720713 0 0 0
175 1 6.47405134493824 9.472819336442122 9.479326109247493 0 0 0
216 1 0.129594057111715 12.63589709530803 9.49137880909974 0 0 0
218 1 3.3072395756987985 12.631371811923131 9.491541486566279 0 0 0
220 1 6.476670432676303 12.637150820433583 9.483886857760172 0 0 0
76 1 3.317175361840613 15.795402913368608 9.505018218970493 0 -1 0
68 1 6.4826858769262365 15.804028348826623 9.489295105206587 0 -1 0
77 1 1.726366569694011 1.589643330882354 11.09961421165297 0 0 0
79 1 4.897532456325741 1.5578995846950947 11.078347794226465 0 0 0
87 1 1.7011041704782697 4.733184081632131 11.08932306797736 0 0 0
111 1 0.10817364687107522 3.167482360634983 12.6792913076906 0 0 0
89 1 4.9283622826017535 4.765783287714915 11.110533623645864 0 0 0
104 1 3.305351807116923 3.1513379839728777 12.670681391313455 0 0 0
115 1 6.477309346632103 3.1303543682432116 12.65049477724611 0 0 0
121 1 0.10589496295739363 6.285387211667712 12.67201056563219 0 0 0
201 1 1.7039582448692183 7.885143736394894 11.0768964310353 0 0 0
122 1 3.2842788277547865 6.306551233277557 12.650035866034136 0 0 0
123 1 4.886012112742909 7.8993581494114595 11.067167356167957 0 0 0
135 1 6.443333973965542 6.273815755600273 12.616603930089951 0 0 -1
231 1 0.12569972817875347 9.4652844632495 12.648370724753644 0 0 0
233 1 3.292563136699779 9.471088484423317 12.648846768313815 0 0 0
203 1 6.464859999778542 9.472582568225913 12.639760475389005 0 0 0
243 1 1.7124365935368877 11.053563932375546 11.068944583984889 0 0 0
241 1 0.1274066264868 12.637389359591873 12.648835995814238 0 0 0
207 1 3.2992539872700384 12.637488526210563 12.650713273115269 0 0 0
209 1 4.886303585099306 11.055106189254895 11.066080547273138 0 0 0
245 1 6.471693990764245 12.63710239768756 12.64586633091206 0 0 0
168 1 0.13196713810152935 15.81356673188654 12.652580586866804 0 -1 0
217 1 1.7180450154355884 14.224281359925536 11.073767048171899 0 0 0
103 1 3.303126976511273 15.806104070450791 12.657453420742575 0 -1 0
105 1 4.8926016768683915 14.218016080206104 11.072309005924817 0 -1 0
244 1 6.477136806982161 15.800711053932476 12.651164021365872 0 0 0
102 1 1.7059964658883795 1.5724601040763735 14.235656005107046 0 0 0
5 1 4.8880537704051195 1.557756507213252 14.237340478596385 0 0 -1
113 1 1.7307228288241665 4.725264972185992 14.237787852105013 0 0 0
110 1 0.10732147182926088 3.164290900787024 15.792461762210342 1 0 0
114 1 4.8892078955348355 4.7232183395579135 14.243429600759265 0 0 0
13 1 3.2963781920796733 3.142131599380201 15.81751717404726 0 0 -1
15 1 6.47411619506445 3.1353694742227036 15.816787099820663 0 0 -1
226 1 1.6990782846727663 7.876270771612731 14.231099882244699 0 0 0
21 1 0.1064629357679952 6.282740243603371 15.794200348170623 0 0 -1
235 1 4.862895031011414 7.878117095321446 14.22284453879108 0 0 0
127 1 3.289561731750531 6.304283177214251 15.816743523403336 0 0 -1
23 1 6.464878417998867 6.296062837064946 15.816900716529627 0 0 -1
67 1 4.910639361803572 1.5820358739126097 7.924746358135102 0 0 0
3 1 3.300289363476536 15.803994702754384 15.813204961318846 0 -1 -1
133 1 3.2932655266636366 9.46634543701999 15.810745328936498 0 0 -1
158 1 6.4504721454262 9.449284304286222 15.792797752651824 0 0 -1
143 1 1.7115048125453034 11.051891492320363 14.230358536887449 0 0 -1
49 1 0.13237286210408877 12.636276531532243 15.808406124062946 0 0 -1
183 1 3.300905677468264 12.636012316273769 15.812573154357414 0 0 0
234 1 4.88021148713699 11.051794626951242 14.227509433149645 0 0 0
145 1 6.469469236277212 12.633232482127918 15.809212306713352 0 0 -1
242 1 1.7138096098970688 14.222372650968444 14.230800175962171 0 0 0
1 1 0.1266609826754401 15.808135581612285 15.80366199893525 0 -1 -1
27 1 4.886652667309596 14.218970505068361 14.232633042330617 0 0 0
97 1 1.7263831502380098 14.177449065004451 7.914380617416493 0 0 0
146 1 6.47434345076353 15.800992967077422 15.814607801109462 0 0 -1
131 1 0.1358867632485991 9.45989464507032 15.80980531505029 0 0 -1
6 1 8.063076382302167 1.5587910747400195 1.5701629847583787 0 0 0
8 1 11.245592790623911 1.5785845782567776 1.5616066623404103 0 0 0
10 1 14.409735848276359 1.5771296570777973 1.5527829755496159 0 0 0
16 1 8.061225012170928 4.717552087692495 1.5672816482720395 0 0 0
18 1 11.242932172160971 4.721145416657991 1.5539867402624643 0 0 0
20 1 14.409123006058108 4.724079567734515 1.5856922516699021 0 0 0
128 1 8.049125617777813 7.873065913454938 1.572884781179425 0 0 0
129 1 11.218166193628017 7.8559836676470916 1.5315981397327685 0 0 0
130 1 14.409929474397899 7.870194197458858 1.5562082040354652 0 0 0
199 1 11.231704249629804 14.219649310460532 7.908040473860247 0 0 0
136 1 8.04114318945663 11.023092751990328 1.5399048502819825 0 0 0
137 1 10.82563696088634 10.647992152388339 1.1653326287722834 0 0 0
138 1 12.240499499347738 12.051563882780142 2.5680772180101825 0 0 0
140 1 14.468982928572972 11.055467056748963 1.5738836578905693 0 0 0
112 1 8.057197899677112 14.220085340761086 1.567728847451945 0 0 0
33 1 12.76415996309295 15.79309332182791 6.308809108416606 0 -1 0
148 1 11.24218418736459 14.279889350633098 1.5746481392703322 0 0 0
69 1 9.639713920562894 15.801235637106515 6.31737034039475 0 -1 0
150 1 14.386071409502902 14.199165816536453 1.5188061817239065 0 0 0
54 1 8.062407824708245 1.5601261415769538 4.735452744595222 0 0 0
32 1 9.645958991710893 15.809163233701282 3.1502475852520293 0 -1 0
44 1 11.231939665146138 1.5654323737117755 4.733645800150743 0 0 0
224 1 12.84814585742661 0.0324925334006584 3.172575699788177 0 0 0
36 1 14.434540161305712 1.59700352745244 4.757236306043649 -1 0 0
42 1 9.651001340062495 3.143516679934355 3.1495844910973294 0 0 0
64 1 8.06459871475844 4.722662270296445 4.73377839818174 0 0 0
227 1 12.826089802659956 3.150406583854551 3.1485508299739684 0 0 0
43 1 11.238034626029993 4.724157326134308 4.731805198000683 0 0 0
65 1 14.414995157300568 4.727381546295118 4.741309567263773 0 0 0
88 1 9.647578340511542 6.299071542843919 3.14660874579777 0 0 0
153 1 8.056597955621996 7.880849919243126 4.739323522739691 0 0 0
50 1 12.818252315959167 6.30141093499998 3.140556725645743 0 0 0
154 1 11.235125243214423 7.880756953912577 4.733848141063083 0 0 0
155 1 14.406448912553332 7.8782969477847775 4.729949439684401 0 0 0
55 1 9.637613738396151 9.453996886624576 3.1911887717546703 0 0 0
164 1 12.798656326330114 9.433334083633747 3.1241925833550335 0 0 0
19 1 8.056841089027026 11.050511755872405 4.735333473567922 0 0 0
172 1 9.616094785010942 12.609560073443062 3.1257604507927206 0 0 0
162 1 11.240513558299325 11.05699407030285 4.793786750748529 0 0 0
165 1 14.386050325495354 11.004231035074822 4.711480907821696 0 0 0
171 1 8.054415851297044 14.216163341395152 4.731744864480853 0 0 0
30 1 11.185722061650724 14.195607537204395 4.7108741483131364 0 0 0
78 1 15.019159086353486 14.827736638770153 5.34038460478169 0 -1 0
197 1 13.62679307525137 13.443615914609076 3.9561881446010885 0 -1 0
163 1 12.846623052929067 12.659765543788803 6.370331549549366 0 0 0
92 1 8.069591382963011 4.725375590696934 7.899785100408203 0 0 0
59 1 9.651335976515051 3.1427909546560078 6.317738283000905 0 0 0
60 1 12.822225653269257 3.1464609078955315 6.320084962963763 0 0 0
179 1 8.062855740823538 7.887026863196682 7.898355428883711 0 0 0
181 1 9.651708119126567 6.304019487407032 6.316534681910915 0 0 0
73 1 12.824185013099383 6.304842722453408 6.318114947829923 0 0 0
189 1 11.238098074982089 7.885644347051581 7.902345683064353 0 0 0
195 1 14.409865637092901 11.047550888119956 7.90832197824135 0 0 0
118 1 9.646021083907932 9.465706363403202 6.327999331851268 0 0 0
194 1 12.82319528872199 9.463922304553645 6.323081151668857 0 0 0
184 1 9.643801311767154 12.635760841196078 6.323403173048696 0 0 0
193 1 8.06176398073781 11.05343404955311 7.90141394462724 0 0 0
31 1 8.067897615367919 1.5614107364622494 7.904473866525013 0 0 0
74 1 11.239947937693096 4.724350334971752 7.9024773571845515 0 0 0
75 1 14.412582751053991 4.72833581140184 7.90515393382177 0 0 0
190 1 14.410278775927106 7.885348250223413 7.90473772431844 0 0 0
198 1 8.062272179234633 14.22005152833596 7.903131942129804 0 0 0
222 1 11.237591730886447 11.053174946613119 7.9121882047442735 0 0 0
53 1 11.228044330989205 1.5620985957695364 7.906039460302248 0 -1 0
101 1 14.406155325122418 14.215613570670582 14.223649889959026 -1 -1 0
84 1 12.823488624486055 15.80604836738344 9.492609951620057 0 -1 0
139 1 12.857868672580803 9.451509325489448 15.802701088217782 0 0 -1
81 1 9.656823573503202 3.1429571428075582 9.48733358927286 0 0 0
94 1 12.818194984787834 3.14713864366908 9.496877435642881 0 0 0
248 1 11.23552144441956 14.221911106944992 14.225502189853831 0 0 0
246 1 8.056660797193352 14.224146312740984 14.224989442750985 0 0 0
99 1 9.655053619650205 6.302974418305487 9.481272571726988 0 0 0
100 1 12.824615833848759 6.30585504394571 9.489296576769444 0 0 0
119 1 9.649915905494352 9.466193647881056 9.48284569260167 0 0 0
214 1 12.824016562925005 9.466738504244606 9.487761549912221 0 0 0
223 1 9.649177982471478 12.635448018280286 9.485999269505147 0 0 0
213 1 12.826329068295417 12.639002613878525 9.494076033668167 0 0 0
149 1 12.79714545776388 12.61118690042585 15.780096688380956 0 0 -1
250 1 12.822632454870156 15.813968532164262 15.807559904198483 0 0 0
82 1 9.652676868198254 15.803308307368166 9.487941490743637 0 -1 0
141 1 14.40903719349658 11.051028444768564 14.226389878480656 -1 0 -1
7 1 9.648141992939932 15.81412879316473 15.808459644275077 0 -1 -1
70 1 14.434900938160942 14.2450871909021 7.938161976529168 0 -1 0
219 1 8.070592618789034 1.5569565359398407 11.069535391576835 0 0 0
83 1 11.246611541723032 1.5657654079824008 11.076557484633854 0 0 0
188 1 14.411834336368013 1.574515979813145 11.084706312396957 0 0 0
120 1 9.65808532096526 3.1357296675120305 12.647665416876793 0 0 0
91 1 8.077877209581134 4.7239266619722216 11.068655285176177 0 0 0
85 1 12.843861160714104 3.161040894087813 12.671514167731486 0 0 0
93 1 11.249482237306491 4.722046381159257 11.076780501119897 0 0 0
95 1 14.407779913658343 4.72742363184294 11.055756798302648 0 0 0
124 1 9.657887961399803 6.297471095498617 12.641046778147683 0 0 0
25 1 8.056177059113184 7.879172180745163 11.04744055849194 0 0 -1
125 1 12.846838083281673 6.277714625026106 12.665517574305749 0 0 0
204 1 11.243943862981483 7.875229774940307 11.068528245251914 0 0 0
205 1 14.40901006276498 7.877333838935026 11.077198307086382 0 0 0
237 1 9.632268582616641 9.44633210767546 12.630627377448754 0 0 0
230 1 12.821262665665099 9.459416264633132 12.643849217986965 0 0 0
211 1 8.059524281066372 11.051147604922622 11.061516304961058 0 0 0
247 1 9.645814624559417 12.632483504497307 12.644589566606504 0 0 0
212 1 11.232809673051172 11.046635669461443 11.065743197475616 0 0 0
240 1 12.81756879508095 12.630813033301074 12.645652586903523 0 0 0
215 1 14.408586839953305 11.051067497841597 11.069253083517543 0 0 0
107 1 9.653130137100808 15.802493177611955 12.649380634296675 0 -1 0
221 1 8.06445056696706 14.218543026422612 11.066666594323504 0 0 0
249 1 11.237221931397992 14.219624798001822 11.068667942629727 0 0 0
225 1 12.824162335125132 15.808287588635784 12.64904179234773 0 0 0
108 1 14.414751570223924 14.226989932241263 11.072829089225936 0 0 0
106 1 8.064401391633208 1.5563391530201602 14.230963574565356 0 0 0
109 1 11.24778537764422 1.569350120015299 14.229910398856676 0 0 0
2 1 14.409813014167412 1.5446311106352275 14.230604747216494 0 0 0
116 1 8.052977411331472 4.703482474438912 14.223286776324942 0 0 0
17 1 9.653357436953259 3.1375163774439003 15.81134929670171 0 0 -1
228 1 12.842941213087236 3.1643527971714533 15.790797704728453 0 0 0
117 1 11.21701821212419 4.715928495916183 14.227177448131739 0 0 0
28 1 9.636100543210418 6.285068365176399 15.79184292693753 0 0 -1
173 1 11.263384977937418 7.854778994776337 14.211616004529692 0 0 0
229 1 12.84239153346186 6.275853818061339 15.787850669601063 0 0 0
200 1 14.415111650094474 7.896325281829714 14.22565136036976 0 0 0
29 1 9.419929678458862 9.21215313445061 15.554609307554836 0 0 0
236 1 8.04721801068406 11.056795305007684 14.217172786607621 0 0 0
147 1 9.63700390276688 12.67729989476789 15.799877881559954 0 0 -1
238 1 11.209042625098437 11.0213214424251 14.211263213826241 0 0 0
202 1 7.939297500634712 7.765543953811224 14.110715845150876 0 0 0
239 1 14.36590165083768 1.5704430604418473 7.914404031803303 0 0 0

Velocities

11 0 0 0
4 0 0 0
12 0 0 0
14 0 0 0
126 0 0 0
132 0 0 0
46 0 0 0
134 0 0 0
142 0 0 0
144 0 0 0
52 0 0 0
26 0 0 0
58 0 0 0
38 0 0 0
37 0 0 0
39 0 0 0
185 0 0 0
40 0 0 0
180 0 0 0
151 0 0 0
47 0 0 0
152 0 0 0
48 0 0 0
156 0 0 0
22 0 0 0
160 0 0 0
157 0 0 0
166 0 0 0
170 0 0 0
232 0 0 0
45 0 0 0
167 0 0 0
169 0 0 0
192 0 0 0
159 0 0 0
51 0 0 0
34 0 0 0
56 0 0 0
57 0 0 0
72 0 0 0
41 0 0 0
61 0 0 0
186 0 0 0
178 0 0 0
62 0 0 0
63 0 0 0
176 0 0 0
177 0 0 0
161 0 0 0
191 0 0 0
174 0 0 0
210 0 0 0
182 0 0 0
9 0 0 0
196 0 0 0
80 0 0 0
35 0 0 0
24 0 0 0
86 0 0 0
71 0 0 0
66 0 0 0
90 0 0 0
96 0 0 0
187 0 0 0
98 0 0 0
206 0 0 0
208 0 0 0
175 0 0 0
216 0 0 0
218 0 0 0
220 0 0 0
76 0 0 0
68 0 0 0
77 0 0 0
79 0 0 0
87 0 0 0
111 0 0 0
89 0 0 0
104 0 0 0
115 0 0 0
121 0 0 0
201 0 0 0
122 0 0 0
123 0 0 0
135 0 0 0
231 0 0 0
233 0 0 0
203 0 0 0
243 0 0 0
241 0 0 0
207 0 0 0
209 0 0 0
245 0 0 0
168 0 0 0
217 0 0 0
103 0 0 0
105 0 0 0
244 0 0 0
102 0 0 0
5 0 0 0
113 0 0 0
110 0 0 0
114 0 0 0
13 0 0 0
15 0 0 0
226 0 0 0
21 0 0 0
235 0 0 0
127 0 0 0
23 0 0 0
67 0 0 0
3 0 0 0
133 0 0 0
158 0 0 0
143 0 0 0
49 0 0 0
183 0 0 0
234 0 0 0
145 0 0 0
242 0 0 0
1 0 0 0
27 0 0 0
97 0 0 0
146 0 0 0
131 0 0 0
6 0 0 0
8 0 0 0
10 0 0 0
16 0 0 0
18 0 0 0
20 0 0 0
128 0 0 0
129 0 0 0
130 0 0 0
199 0 0 0
136 0 0 0
137 0 0 0
138 0 0 0
140 0 0 0
112 0 0 0
33 0 0 0
148 0 0 0
69 0 0 0
150 0 0 0
54 0 0 0
32 0 0 0
44 0 0 0
224 0 0 0
36 0 0 0
42 0 0 0
64 0 0 0
227 0 0 0
43 0 0 0
65 0 0 0
88 0 0 0
153 0 0 0
50 0 0 0
154 0 0 0
155 0 0 0
55 0 0 0
164 0 0 0
19 0 0 0
172 0 0 0
162 0 0 0
165 0 0 0
171 0 0 0
30 0 0 0
78 0 0 0
197 0 0 0
163 0 0 0
92 0 0 0
59 0 0 0
60 0 0 0
179 0 0 0
181 0 0 0
73 0 0 0
189 0 0 0
195 0 0 0
118 0 0 0
194 0 0 0
184 0 0 0
193 0 0 0
31 0 0 0
74 0 0 0
75 0 0 0
190 0 0 0
198 0 0 0
222 0 0 0
53 0 0 0
101 0 0 0
84 0 0 0
139 0 0 0
81 0 0 0
94 0 0 0
248 0 0 0
246 0 0 0
99 0 0 0
100 0 0 0
119 0 0 0
214 0 0 0
223 0 0 0
213 0 0 0
149 0 0 0
250 0 0 0
82 0 0 0
141 0 0 0
7 0 0 0
70 0 0 0
219 0 0 0
83 0 0 0
188 0 0 0
120 0 0 0
91 0 0 0
85 0 0 0
93 0 0 0
95 0 0 0
124 0 0 0
25 0 0 0
125 0 0 0
204 0 0 0
205 0 0 0
237 0 0 0
230 0 0 0
211 0 0 0
247 0 0 0
212 0 0 0
240 0 0 0
215 0 0 0
107 0 0 0
221 0 0 0
249 0 0 0
225 0 0 0
108 0 0 0
106 0 0 0
109 0 0 0
2 0 0 0
116 0 0 0
17 0 0 0
228 0 0 0
117 0 0 0
28 0 0 0
173 0 0 0
229 0 0 0
200 0 0 0
29 0 0 0
236 0 0 0
147 0 0 0
238 0 0 0
202 0 0 0
239 0 0 0
