LAMMPS data file via write_data, version 22 Jul 2025, timestep = 31396, units = metal

250 atoms
1 atom types

-0.025248458410968257 15.851226458411004 xlo xhi
0 15.825978000000001 ylo yhi
0 15.825978000000001 zlo zhi

Masses

1 183.841

Atoms # atomic

11 1 1.7487699304417355 1.4296347313675883 1.611779635417843 0 0 0
4 1 4.9074821192205915 1.4298417714109755 1.58540188728448 0 0 0
116 1 1.7536388922448156 4.600208362438275 1.6127587257103544 0 0 0
110 1 0.19017014066721818 3.0522006246743314 0.05302849524991132 1 0 1
14 1 4.902338339851702 4.596044500211066 1.6138081857038955 0 0 0
13 1 3.327668348349704 3.0258916196660626 0.02966007440383173 0 0 0
15 1 6.463676269635586 3.0441678897746836 0.04754303272876012 0 0 0
126 1 1.7378970235440294 7.755663383670526 1.5921580418493213 0 0 0
12 1 0.15041619590019384 6.180582850344475 0.01004871991177259 0 0 0
132 1 4.909068670699843 7.756531971669373 1.591330171711018 0 0 0
127 1 3.324315368609662 6.177455072255125 0.009493520929221264 0 0 0
135 1 6.495192139612909 6.178798920884318 0.009314721750502958 0 0 0
131 1 0.15116028941372772 9.330238276122795 0.013886463981675016 0 0 0
191 1 1.7457432415152325 10.91608234161331 7.906056007076362 0 0 0
158 1 6.495337621516797 9.33192337459836 0.012123544271161127 0 0 0
46 1 1.7605134398463314 10.895557425208688 1.624822915261467 -1 0 0
49 1 0.23052078373214205 12.430525611277037 0.09486297338666759 0 0 0
134 1 4.901713193332037 10.907183714661338 1.6145328751974433 0 0 0
234 1 3.3316134827524633 12.49093135627687 0.032407874611487114 0 0 1
145 1 6.446746937063576 12.457679758703932 0.06689087291897598 0 0 0
142 1 1.7474720295962467 14.099252515016929 1.6118128900071869 0 0 0
80 1 4.908671790776179 14.105139818453523 7.903616500021211 0 -1 0
83 1 4.907855692820783 14.101600329188699 1.6140628170611704 0 0 0
3 1 3.3226770270872286 15.673140762920163 0.02546947291017531 0 -1 0
144 1 6.487800178011263 15.672988723954585 0.017348119907899757 0 0 0
52 1 1.7152164254356657 1.4297507269003062 4.754653453708458 0 0 0
37 1 1.7479171924508714 4.5880644490589555 4.751871095624172 0 0 0
38 1 0.1558308850154657 3.015814804229566 3.179059619818624 0 0 0
39 1 4.905137979646588 4.616987634362106 4.750982982677199 0 0 0
185 1 3.3424915167402993 2.992486051129362 3.1998116493322866 0 1 0
40 1 6.472273736718214 2.99454708351012 3.2022682269243976 0 0 0
180 1 0.15215399668058333 6.183111303211104 3.172139134728088 0 0 0
151 1 1.7392714829207363 7.766585246451213 4.74763510537892 1 0 0
47 1 3.322617132147981 6.177126387487233 3.175746245960192 0 0 0
152 1 4.9045937173942695 7.771396891202197 4.746384955765792 0 0 0
48 1 6.492840803263712 6.180411954470503 3.1700887442502754 0 0 0
156 1 0.14587223859181664 9.341878210846065 3.175235607143987 0 0 0
22 1 3.325814176790219 9.335715851823112 3.181397723250157 0 0 0
160 1 6.500136032432182 9.342558106554995 3.1743637564389107 0 0 0
166 1 0.15269065375852098 12.506525238885196 3.188088802893426 0 0 0
176 1 1.7383788575008259 10.928175951363178 4.75893535788381 0 0 0
170 1 4.908971594141648 10.927062626840463 4.757430278770309 0 0 0
232 1 3.323358891440425 12.51486497942973 3.1818777011145634 0 0 0
45 1 6.495500495512374 12.512566486796015 3.1854412025940895 0 0 0
26 1 0.15331577760881834 15.673086259952335 3.172887821687444 0 -1 0
167 1 1.7453964528434194 14.103625644421186 4.756753357778819 0 0 0
169 1 3.3429345622758717 15.695586646111495 3.2011590463866653 0 0 0
192 1 4.909065622721016 14.076411634003126 4.756980386562594 0 0 0
159 1 6.47565920835428 15.694573374335748 3.19950615754189 0 -1 0
71 1 0.15869508756340509 3.0162833142535255 6.32940586410285 0 0 0
57 1 3.341933540746761 2.9937781215667707 6.308273734349545 0 0 0
41 1 6.466131360350111 2.994815680077193 6.302139215233359 0 0 0
75 1 0.17249399891498918 6.203096436617517 6.308660423706953 1 0 0
62 1 3.320573259842186 6.181214508743275 6.3283107571157045 0 0 0
63 1 6.466607887471113 6.20658279239203 6.3031882855241115 0 0 0
61 1 0.1509040681780103 9.345929923373568 6.330130226853822 0 0 0
177 1 3.3224966460662206 9.341749166332034 6.333518168138729 0 0 0
210 1 6.493059148805537 9.347638011496844 6.329423067488679 0 0 0
174 1 0.1503915729092177 12.512113210342875 6.331650711435932 1 0 0
182 1 3.3228592882893606 12.517014469816337 6.335027594159386 0 0 0
9 1 6.4960817033710745 12.517421085731954 6.333615201442176 0 -1 0
78 1 0.15604636929611143 15.672158021243318 6.335166459901467 1 -1 0
196 1 3.342205485481719 15.695802793887982 6.312747297176675 0 0 0
34 1 6.472018946918851 15.69293223497134 6.311469497192671 0 -1 0
51 1 1.749976760445799 1.4317810516340537 7.900283866841128 0 0 0
70 1 1.7561073707069834 4.599158267545526 7.8985170065881 0 -1 0
72 1 4.89615549314926 4.598314708409628 7.893119204116168 0 0 0
133 1 3.32394728773658 9.335404101988445 0.009693483337722148 0 0 0
97 1 1.7448071534342695 14.101687165480175 7.90523441791717 0 0 0
121 1 4.902465816257303 10.91868209326932 7.906612091831322 0 0 0
27 1 4.8909228835856835 14.074954137579132 14.27313627783882 0 0 0
178 1 4.905852181264352 7.762698652149974 7.915768300514295 0 0 0
86 1 0.1762231840320465 3.033977689754057 9.477427686226147 0 0 0
242 1 1.7691593963127126 14.061235724486929 14.28541899666797 0 0 0
35 1 3.3265218366189333 3.0252941827960314 9.48268686671193 0 0 0
203 1 4.908171598625524 10.917144911253152 14.254054639482327 0 0 0
90 1 6.469349610930316 3.0369481722568423 9.470193612090222 0 0 0
222 1 0.155345189384131 6.184018710262826 9.497660264510426 0 0 0
113 1 1.7372332833784954 4.600036906353276 14.252163277748007 0 0 0
187 1 3.323655711642824 6.181568564888723 9.498177069533112 0 0 0
5 1 4.894012106956946 1.4432506057120909 14.266502409590567 0 0 -1
98 1 6.489853015333709 6.183039213083264 9.495545024474927 0 0 0
190 1 0.15083234903988216 9.338170603652234 9.499922390497705 1 0 0
208 1 3.3226166854754458 9.34036529705703 9.50180719677934 0 0 0
209 1 6.492890070849268 9.338741399655708 9.499398746121582 0 0 0
216 1 0.18846654678687202 12.472387520839144 9.460921000769206 0 0 0
122 1 1.7358766418766007 7.758745065467534 14.251017532459377 0 0 0
218 1 3.328420358719216 12.498055997820508 9.486783332799527 0 0 0
114 1 4.909339930723291 4.59778553366874 14.25222215327903 0 0 0
220 1 6.462189899846401 12.480921648152446 9.468878751393724 0 0 0
24 1 0.1530485119314313 15.6784770709318 9.5105511736423 0 -1 -1
143 1 1.7388305756130655 10.91645083772835 14.25370556481413 0 0 -1
235 1 4.909647994549079 7.758191244445711 14.25092400870646 0 0 0
76 1 3.323565589383854 15.6752325047227 9.490137815142306 0 -1 0
68 1 6.496716459194207 15.676764250931809 9.500243615257293 0 -1 0
77 1 1.761265216863378 1.4557006289375924 11.058144873213136 0 0 0
67 1 4.898559743454936 1.4428033580804993 11.073292989805635 0 0 0
87 1 1.7399290710699706 4.602216018095919 11.082328429108697 0 0 0
111 1 0.1516507335205576 3.0021894737246995 12.665563725203747 0 0 0
66 1 4.90677196918617 4.6000142896237985 11.081505979211618 0 0 0
102 1 3.3235030360854463 3.01847675781857 12.667856191536716 0 0 0
140 1 6.4976614009112925 3.006764492436787 12.666467814122772 0 0 0
125 1 0.1511840803225217 6.179733309372771 12.670602109289133 1 0 0
201 1 1.7356288448534465 7.760974315240768 11.085773711397453 0 0 0
157 1 3.323064112489075 6.179203870010177 12.667917534177288 0 0 0
123 1 4.9090475858357605 7.760107391348455 11.084816351063996 0 0 0
129 1 6.49319261554725 6.179193677548365 12.669860771077898 0 0 0
231 1 0.14803679232130376 9.344472636074558 12.669825530747541 0 0 0
233 1 3.3228214940498875 9.339103565016645 12.668751055592715 0 0 0
25 1 6.495767442251648 9.340526434609696 12.668659957530332 0 0 -1
243 1 1.7374293566756005 10.919476751815635 11.086145123007533 0 0 0
241 1 0.15286660362849536 12.52460472369656 12.66951685037051 1 0 0
207 1 3.3226960431446573 12.500930972992064 12.670343517913075 0 0 0
200 1 4.9073713199507925 10.919700042532154 11.085527402533975 0 0 0
245 1 6.488441911891032 12.510673877445665 12.670463044703633 0 0 0
217 1 1.7642947051888056 14.06579189406852 11.057547693907878 0 0 0
223 1 0.37773076874568584 15.67412681805482 12.669761964391173 1 -1 0
79 1 3.322347343929197 15.672947463882299 12.670282126968194 0 -1 0
105 1 4.89425910857146 14.0791234446369 11.070713076139796 0 -1 0
244 1 6.381446625437434 15.670476682181507 12.672588217640538 0 0 0
168 1 1.765312257165231 1.4572228103535827 14.281512983892497 0 0 0
186 1 1.7382839549991764 7.762393864989791 7.916552002357361 0 0 0
1 1 0.15486528581345876 15.674737820394874 15.82264433559869 0 -1 -1
227 1 4.905461394227855 1.4310102354896197 7.927426740625239 0 0 0
6 1 8.068101628711428 1.432466216504312 1.6167999421862167 0 0 0
8 1 11.256318451425317 1.4312044930929444 1.6011559638809265 0 0 0
10 1 14.4420570306364 1.4325010184162208 1.6015531433099075 0 0 0
17 1 8.064796674481807 4.6016695129950325 1.611031622816231 0 0 0
146 1 9.64012858968419 3.059703649189049 0.05956171260928545 0 1 0
18 1 11.254972108171685 4.606852101988988 1.6007717212170198 0 0 0
228 1 12.86169289084669 3.0658679358509784 0.06147606189668864 0 0 1
20 1 14.446525939280505 4.609018244895824 1.6020159171680577 0 0 0
128 1 8.08492344082911 7.760461738671464 1.589876575825508 0 0 0
28 1 9.67025714355317 6.179897566460212 0.0075443773652369445 0 0 0
229 1 11.25850261483791 7.760233762676892 1.5899980756058405 0 0 1
91 1 11.255405537248008 1.4560676739585197 7.903016060020228 0 0 0
130 1 14.434890241917195 7.760976382217509 1.5905528906066904 0 0 0
206 1 14.506546788676557 4.669322742158996 7.844811147079129 0 0 0
149 1 7.992466073325412 4.665138686582552 7.8218723247568445 0 0 -1
136 1 8.084101922683974 10.922540656600004 1.5976649589475813 0 0 0
147 1 9.680437222814524 12.490000429609871 0.032442289982936856 0 0 0
137 1 11.253322307356493 10.913517679711095 1.6046580502432217 0 0 0
148 1 12.814398943338087 12.470083665577755 0.0486934456007778 0 0 0
164 1 14.436291649630979 10.919693593453069 1.5984898655655382 0 0 0
112 1 8.069369399690263 14.093634576293685 1.6175685449365689 0 0 0
33 1 12.845441349868967 15.678149035064521 6.354537046941896 0 -1 0
224 1 11.257342308529571 14.100523911051077 1.5863767650544087 0 -1 0
69 1 9.668521615661621 15.678636389867613 6.355404791291703 0 -1 0
150 1 14.444969179580244 14.081051577179883 1.6032461782427045 0 0 0
54 1 8.103633141002616 1.4297533878450561 4.755279690804751 0 0 0
44 1 11.261193995937688 1.4326091089679107 4.758377084574275 0 0 0
56 1 14.434532358646369 1.4299104591873704 4.754377051827108 -1 0 0
42 1 9.664110799490121 3.017999119974763 3.1799959671429896 0 0 0
64 1 8.066251221244034 4.594965392078777 4.744476379353018 0 0 0
36 1 12.848245420494361 3.017722982860715 3.179311141607943 -1 0 0
92 1 11.25675275016151 4.600118007306858 4.7553768064827135 0 0 0
65 1 14.443192781955215 4.603120892091292 4.745237138761723 0 0 0
88 1 9.66865967881538 6.1813742837635655 3.1742138889478455 0 0 0
161 1 8.083817811496608 7.763551874016479 4.750790345672824 0 0 0
50 1 12.8471593427913 6.182365087605012 3.172993399089886 0 0 0
181 1 11.258787923205498 7.763559350530425 4.7522070603415845 0 0 0
155 1 14.434833860722536 7.764442264577894 4.751309318183337 0 0 0
55 1 9.670444096857006 9.342561349614463 3.1745980157062617 0 0 0
154 1 12.847027921396297 9.342887205250092 3.173925308482459 0 0 0
172 1 9.671994994436446 12.51382780396167 3.1792598685725517 0 0 0
19 1 8.084385585205393 10.930647899054831 4.753858287931105 0 0 0
162 1 11.25864445207117 10.928254180914996 4.755342588596095 0 0 0
138 1 12.844997956390689 12.510974251200638 3.179748223211155 0 0 0
165 1 14.434945070064488 10.927668705793927 4.7545615133860375 0 0 0
32 1 9.666437432647045 15.675084135160606 3.1763634733489767 0 -1 0
171 1 8.076399068536526 14.106686144778106 4.760325672398128 0 0 0
103 1 12.848450873061829 15.674160199101983 3.1724426986768486 -1 -2 0
30 1 11.257892788639731 14.100084241584527 4.760025910823589 0 0 0
197 1 14.435827808667712 14.096689209184726 4.75877709227638 0 -1 0
59 1 9.654027005806048 3.0271143801711053 6.323767228931523 0 0 0
60 1 12.857061978727419 3.026133430160107 6.3246246114581135 0 0 0
175 1 9.66933147092381 6.183040549698561 6.329564608206388 0 0 0
43 1 12.845826115993491 6.184388092106082 6.330501394430048 0 0 0
118 1 9.670401764351572 9.344263557474266 6.331845280970651 0 0 0
194 1 12.84728079693534 9.344320978794622 6.332743371845745 0 0 0
184 1 9.670218349978681 12.514482431875948 6.3319207095573535 0 0 0
163 1 12.846331070571958 12.512383344013074 6.332865808959405 0 0 0
31 1 8.05504030341973 1.4191637525925325 7.883202583705168 0 0 0
239 1 14.45289436457735 1.420050731795613 7.898235500592467 0 0 0
21 1 12.84622063149441 6.182059663492537 0.006278687793560647 -1 0 0
214 1 11.256236867975757 10.918340013239188 7.9080469924046435 0 0 0
193 1 8.071353201375429 10.91728513883639 7.903406020521149 0 0 0
179 1 8.076146488763346 7.770340988694939 7.909287340784774 0 0 0
195 1 14.4461186581779 10.916441154348165 7.905250957148134 0 0 0
73 1 14.441950194395663 7.770536147601848 7.910868984959677 0 0 0
139 1 12.844943655198424 9.337284127328909 0.007325069140121657 0 0 0
29 1 9.673475722337432 9.338822182584053 0.006420448134652517 0 0 1
198 1 8.076674802379316 14.105333015633093 7.908641604758005 0 0 0
16 1 14.436846935975707 14.095703433023717 7.9167461013159555 0 0 0
2 1 14.48237901844267 1.5786688983111072 14.365444393409808 0 0 0
153 1 8.084791237000628 4.595367307351112 14.248988470355833 0 0 0
53 1 9.439098661076118 3.1596329976223005 9.342302440281902 0 -1 0
101 1 14.537731641328971 13.877688599776079 14.46663269709273 -1 -1 0
94 1 13.055322377559559 3.149216075922584 9.36382897412413 0 0 0
226 1 14.43447085232181 7.757111681138701 14.248450659695829 -1 0 0
115 1 11.268105854894824 14.117012717011036 14.227427597348695 0 0 0
99 1 9.657940414893543 6.189256438833233 9.486082788854903 0 0 0
173 1 11.259265791556366 7.755916099147753 14.24485835836612 0 0 0
100 1 12.857471697939722 6.191595400550392 9.48943421759151 0 0 0
202 1 8.08610384800365 7.755168646231769 14.247948370546494 0 0 0
95 1 14.435723635585559 4.597336233699661 14.249362435480933 0 0 0
119 1 9.66929684728999 9.337326015322972 9.497442604748993 0 0 0
205 1 12.848533593636885 9.337496517389841 9.498185165418512 0 0 0
221 1 9.638465849582955 12.463694449764446 9.449606065624227 0 0 0
246 1 7.992600945657465 13.950396182988452 14.398210243262552 0 0 0
213 1 12.86394012795517 12.457659846022587 9.448120167646042 0 0 0
117 1 11.258054275249263 4.583264356035302 14.24252801158539 0 0 0
141 1 14.443762863746606 10.915601541995267 14.263687566584025 -1 0 -1
82 1 9.694701248384021 15.693982412461228 9.593958772452552 0 -1 0
238 1 11.258421066949804 10.932365718676708 14.243942081836943 0 0 0
84 1 12.829613363969555 15.694256095925805 9.586468103476017 0 -1 0
199 1 11.256772497299307 14.102095539159304 7.931074587945809 0 0 0
236 1 8.077259596892787 10.911450784082307 14.259873265207347 0 0 0
107 1 8.059719037213679 1.4889131715253312 11.02321109561527 0 0 0
120 1 11.228667963787913 1.9183960031840956 10.605387711545081 0 0 0
188 1 14.443954498884816 1.4859866402814916 11.02890990740155 0 0 0
81 1 8.069949451385872 4.614345082657172 11.094871525074689 0 0 0
106 1 9.694689027752476 2.9184211534529876 12.652421206045137 0 0 0
23 1 12.83076327206629 2.92811764749463 12.650012041813412 0 0 0
93 1 11.258586527825667 4.613575062491366 11.060568295434466 0 0 0
96 1 14.450799804132119 4.614704190472679 11.09540088749194 -1 0 0
104 1 8.083308215501768 7.760045895885157 11.08471412678617 0 0 0
124 1 9.673420478607243 6.159540335504874 12.66430974031783 0 0 0
183 1 12.846043766106996 6.1617821554085515 12.664814122089439 0 0 1
204 1 11.259129891496809 7.758146697027327 11.083202330363623 0 0 0
89 1 14.436673609522925 7.761580059972128 11.086019448278966 0 0 0
237 1 9.671431263208667 9.34123745828275 12.667473218617493 0 0 0
230 1 12.84840464215395 9.344643613921733 12.668419789306313 0 0 0
211 1 8.079855063797954 10.916369082052908 11.083309723405522 0 0 0
247 1 9.64596461499168 12.522490650779682 12.683676216893177 0 0 0
212 1 11.25829443620098 10.919217168907728 11.084233883805052 0 0 0
240 1 12.873803694450423 12.531148245525609 12.681483741050084 0 0 0
215 1 14.43992170563781 10.9184683615494 11.083583583206913 0 0 0
248 1 8.03002230975546 14.000085164716632 10.983317012553067 0 0 0
7 1 9.018477483830134 15.598142286308118 12.748099240607413 0 -1 -1
249 1 11.246865500845317 13.857462817552902 11.006825322361538 0 0 0
225 1 13.670040885685976 15.55241324930362 12.79670925553344 0 0 0
58 1 11.365055256665416 0.19299293923245495 12.316257914709228 0 1 0
108 1 14.480135638232296 13.983064538271003 10.941125318492697 0 0 0
219 1 8.02726539453706 1.530506397002277 14.350778659619767 0 0 0
85 1 11.247792637936435 1.5062299881613619 14.478844106512334 0 0 0
74 1 11.256478437199531 4.5920802824260045 7.922330738613024 0 0 0
189 1 11.258450786720037 7.7606084376291635 7.913931599981132 0 0 0
250 1 12.873748763020227 15.662427228781718 15.814323073244015 0 0 0
109 1 9.644793187448974 15.661676468544334 15.825492420518703 0 -1 0

Velocities

11 0 0 0
4 0 0 0
116 0 0 0
110 0 0 0
14 0 0 0
13 0 0 0
15 0 0 0
126 0 0 0
12 0 0 0
132 0 0 0
127 0 0 0
135 0 0 0
131 0 0 0
191 0 0 0
158 0 0 0
46 0 0 0
49 0 0 0
134 0 0 0
234 0 0 0
145 0 0 0
142 0 0 0
80 0 0 0
83 0 0 0
3 0 0 0
144 0 0 0
52 0 0 0
37 0 0 0
38 0 0 0
39 0 0 0
185 0 0 0
40 0 0 0
180 0 0 0
151 0 0 0
47 0 0 0
152 0 0 0
48 0 0 0
156 0 0 0
22 0 0 0
160 0 0 0
166 0 0 0
176 0 0 0
170 0 0 0
232 0 0 0
45 0 0 0
26 0 0 0
167 0 0 0
169 0 0 0
192 0 0 0
159 0 0 0
71 0 0 0
57 0 0 0
41 0 0 0
75 0 0 0
62 0 0 0
63 0 0 0
61 0 0 0
177 0 0 0
210 0 0 0
174 0 0 0
182 0 0 0
9 0 0 0
78 0 0 0
196 0 0 0
34 0 0 0
51 0 0 0
70 0 0 0
72 0 0 0
133 0 0 0
97 0 0 0
121 0 0 0
27 0 0 0
178 0 0 0
86 0 0 0
242 0 0 0
35 0 0 0
203 0 0 0
90 0 0 0
222 0 0 0
113 0 0 0
187 0 0 0
5 0 0 0
98 0 0 0
190 0 0 0
208 0 0 0
209 0 0 0
216 0 0 0
122 0 0 0
218 0 0 0
114 0 0 0
220 0 0 0
24 0 0 0
143 0 0 0
235 0 0 0
76 0 0 0
68 0 0 0
77 0 0 0
67 0 0 0
87 0 0 0
111 0 0 0
66 0 0 0
102 0 0 0
140 0 0 0
125 0 0 0
201 0 0 0
157 0 0 0
123 0 0 0
129 0 0 0
231 0 0 0
233 0 0 0
25 0 0 0
243 0 0 0
241 0 0 0
207 0 0 0
200 0 0 0
245 0 0 0
217 0 0 0
223 0 0 0
79 0 0 0
105 0 0 0
244 0 0 0
168 0 0 0
186 0 0 0
1 0 0 0
227 0 0 0
6 0 0 0
8 0 0 0
10 0 0 0
17 0 0 0
146 0 0 0
18 0 0 0
228 0 0 0
20 0 0 0
128 0 0 0
28 0 0 0
229 0 0 0
91 0 0 0
130 0 0 0
206 0 0 0
149 0 0 0
136 0 0 0
147 0 0 0
137 0 0 0
148 0 0 0
164 0 0 0
112 0 0 0
33 0 0 0
224 0 0 0
69 0 0 0
150 0 0 0
54 0 0 0
44 0 0 0
56 0 0 0
42 0 0 0
64 0 0 0
36 0 0 0
92 0 0 0
65 0 0 0
88 0 0 0
161 0 0 0
50 0 0 0
181 0 0 0
155 0 0 0
55 0 0 0
154 0 0 0
172 0 0 0
19 0 0 0
162 0 0 0
138 0 0 0
165 0 0 0
32 0 0 0
171 0 0 0
103 0 0 0
30 0 0 0
197 0 0 0
59 0 0 0
60 0 0 0
175 0 0 0
43 0 0 0
118 0 0 0
194 0 0 0
184 0 0 0
163 0 0 0
31 0 0 0
239 0 0 0
21 0 0 0
214 0 0 0
193 0 0 0
179 0 0 0
195 0 0 0
73 0 0 0
139 0 0 0
29 0 0 0
198 0 0 0
16 0 0 0
2 0 0 0
153 0 0 0
53 0 0 0
101 0 0 0
94 0 0 0
226 0 0 0
115 0 0 0
99 0 0 0
173 0 0 0
100 0 0 0
202 0 0 0
95 0 0 0
119 0 0 0
205 0 0 0
221 0 0 0
246 0 0 0
213 0 0 0
117 0 0 0
141 0 0 0
82 0 0 0
238 0 0 0
84 0 0 0
199 0 0 0
236 0 0 0
107 0 0 0
120 0 0 0
188 0 0 0
81 0 0 0
106 0 0 0
23 0 0 0
93 0 0 0
96 0 0 0
104 0 0 0
124 0 0 0
183 0 0 0
204 0 0 0
89 0 0 0
237 0 0 0
230 0 0 0
211 0 0 0
247 0 0 0
212 0 0 0
240 0 0 0
215 0 0 0
248 0 0 0
7 0 0 0
249 0 0 0
225 0 0 0
58 0 0 0
108 0 0 0
219 0 0 0
85 0 0 0
74 0 0 0
189 0 0 0
250 0 0 0
109 0 0 0
