LAMMPS data file via write_data, version 22 Jul 2025, timestep = 36700, units = metal

250 atoms
1 atom types

-0.021344729633511344 15.84732272963356 xlo xhi
0 15.825978000000001 ylo yhi
0 15.825978000000001 zlo zhi

Masses

1 183.841

Atoms # atomic

11 1 1.7539260658523343 1.4623276695420884 1.5150784276453397 0 0 0
4 1 4.927434508625871 1.463730336163905 1.5137221571578634 0 0 0
180 1 1.760030414036583 4.632729606259608 1.5120730249515955 0 0 0
14 1 4.9329405966126485 4.630614332764721 1.5103915742756537 0 0 0
126 1 1.757525218147527 7.798292022447454 1.5103361914178528 0 0 0
132 1 4.949380381451892 7.815207379168169 1.494329562781393 0 0 0
207 1 1.75326438758056 10.963109913558043 1.5116800873130747 0 0 0
134 1 4.92575530627961 10.968258663982867 1.505640533055148 0 0 0
46 1 1.7539247933106 14.124634121134818 1.516420341577167 -1 0 0
83 1 4.926363527892574 14.12881077385899 1.5130113503173659 0 0 0
52 1 1.7550817577090763 1.456789768890443 4.6768171210985425 0 0 0
185 1 4.932973422004083 1.4522866772618388 4.679891346581732 0 1 0
37 1 1.779499569390116 4.652089605606252 4.648101545336681 0 0 0
38 1 0.16998532985978068 3.0475185690910114 3.090837015743746 0 0 0
116 1 3.3439943557966507 3.0443083012408376 3.0936260344051054 0 0 0
39 1 4.941346496097734 4.587753069621663 4.670264352060645 0 0 0
40 1 6.521432876435988 3.039768262421397 3.0929903110373194 0 0 0
157 1 0.1664534780169256 6.212369045065626 3.0934405148485884 1 0 0
151 1 1.712522618736194 7.805271315827975 4.671085084749316 1 0 0
47 1 3.3705189075442923 6.240129609429137 3.078641486294488 0 0 0
48 1 6.532530453446139 6.203739573314701 3.0819870875862865 0 0 0
156 1 0.16202821040330914 9.38273640027445 3.0926627423319855 0 0 0
22 1 3.333064514316927 9.392499986656702 3.08338653466796 0 0 0
212 1 5.182895286207739 8.047710019829141 4.434987479545957 0 0 0
160 1 6.639935304954792 9.500998608737275 2.9754231823738033 0 0 0
166 1 0.16806780395357804 12.542094729890144 3.099931165410989 0 0 0
176 1 1.757749778160268 10.964449083258632 4.678437407681995 0 0 0
170 1 4.949728787325046 10.980543922023958 4.663728642379363 0 0 0
232 1 3.3430398769558 12.547765403280135 3.0954576482574443 0 0 0
45 1 6.522784073921894 12.56108409353397 3.0913795328199503 0 0 0
26 1 0.16650740137901693 15.704727301976726 3.0979320276021185 0 -1 0
167 1 1.755364145680851 14.122524845547552 4.6814447946417115 0 0 0
169 1 3.341291732012365 15.706259402588476 3.097818377470046 0 0 0
192 1 4.931533871353848 14.127408375692871 4.682466481302515 0 0 0
159 1 6.514949882414823 15.709705332466745 3.0990933948177317 0 -1 0
71 1 0.1898357458639212 3.066617919359886 6.215772807359704 0 0 0
57 1 3.339214462724982 2.9821739494191206 6.272903472525308 0 0 0
41 1 6.522288030102215 3.0424091111377276 6.264764180550704 0 0 0
75 1 0.10705068850172333 6.203131631359824 6.272202616024675 1 0 0
62 1 2.3431272857964265 5.213942469334432 7.259253786402839 0 0 0
152 1 3.751369857461568 6.621808220641764 5.854570885074776 0 0 0
63 1 6.537729922259359 6.240814642115268 6.235630866561693 0 0 0
61 1 0.16684930473911036 9.3821036667373 6.263531016919063 0 0 0
177 1 3.373044962388558 9.40007296785773 6.23840322781032 0 0 0
51 1 1.7331600938018623 1.4088931066563581 7.871683613892537 0 0 0
19 1 6.535841258992703 9.397993816677825 6.276705660610593 0 0 0
174 1 0.16846599535811932 12.540371141136756 6.265371046699522 1 0 0
34 1 6.516429507286501 15.706352640630232 6.271755793080454 0 -1 0
182 1 3.3483766036858778 12.544919199598478 6.262729713301072 0 0 0
121 1 4.9415700716284015 10.97396579845376 7.853509325055767 0 0 0
9 1 6.519142546124959 12.548112341005014 6.270288229179749 0 -1 0
78 1 0.16667400920491454 15.699158772925964 6.260376702855716 1 -1 0
196 1 3.3432614100500353 15.694385784966414 6.2678259750317995 0 0 0
191 1 1.7617694971937747 10.963224987225662 7.842735496707853 0 0 0
97 1 1.7540727689328577 14.11464274296131 7.8514040948910795 0 0 0
72 1 4.963598677631157 4.652690691601283 7.8209866905982235 0 0 0
80 1 4.9404995760285635 14.122621916538275 7.8580293036465605 0 -1 0
227 1 4.942808758623556 1.4491165605993828 7.855552077602599 0 0 0
186 1 1.7807121509633066 7.8281448524811825 7.82244040711339 0 0 0
210 1 4.942793582430497 7.80912868120669 7.886064023311208 0 0 0
1 1 0.1652535968006099 15.702021676369792 15.763961082414982 0 -1 -1
144 1 6.5079099465107575 15.708220569809043 15.756359075806465 0 0 -1
70 1 0.9541962459992909 3.8257160334827014 8.648333219455678 0 -1 0
35 1 3.394672072717714 3.0674455430359595 9.40575801839109 0 0 0
27 1 4.935085950633645 14.1226781388484 14.16692325212346 0 0 0
90 1 6.523387528102982 3.042127765898594 9.425865581123261 0 0 0
222 1 0.19078072056061707 6.259814273631553 9.406982797041705 0 0 0
133 1 3.3446848131337865 9.382578762683243 15.750565767538859 0 0 -1
187 1 1.7324961187617451 4.604681740561949 11.06463122320425 0 0 0
178 1 3.338116358814895 6.206404435611921 9.488494711327409 0 0 0
98 1 6.520959081336896 6.213176264802088 9.42944673603191 0 0 0
190 1 0.1705761904433914 9.385059251406043 9.427083438732133 1 0 0
248 1 3.34644177806948 9.384891552836876 9.431353182099587 0 0 0
209 1 6.521250482152545 9.389085516229791 9.434282517942648 0 0 0
216 1 0.16265157189839474 12.536462046940466 9.434469876993635 0 0 0
218 1 3.347954908584748 12.54073107216245 9.42881676277677 0 0 0
220 1 6.535298378967283 12.564541107624624 9.450708452768763 0 0 0
24 1 0.14222501324467046 15.669697380694142 9.45387029515398 0 -1 -1
3 1 3.341989089132316 15.706081170486263 15.758310705026556 0 -1 -1
76 1 3.353543349702742 15.699836023260483 9.429551283275838 0 -1 0
68 1 6.536843961078567 15.683227994829009 9.450630752851536 0 -1 0
77 1 1.8189867670225357 1.4706534812432435 11.00214034141133 0 0 0
67 1 4.95085356372595 1.4522963351005562 11.01035123246528 0 0 0
87 1 0.1430241793909785 3.0201324861369203 12.631460596638512 0 0 0
111 1 1.7574231255463195 1.4603554407298711 14.181678500957869 0 0 0
102 1 3.349614038734452 3.0431071358976665 12.59919931693496 0 0 0
140 1 4.935810774125002 4.626129348446087 11.016524685973945 0 0 0
168 1 6.515545492780869 3.038446599694739 12.595268270005825 0 0 0
125 1 0.166923367789989 6.216148083111414 12.600975255021172 1 0 0
201 1 1.7553651008235884 7.800215066457911 11.017028184632853 0 0 0
123 1 4.933832021383185 7.800232103824624 11.020864675826129 0 0 0
113 1 3.3418369335183256 6.210607435984624 12.603890805232854 0 0 0
129 1 6.51626888149157 6.210266006989197 12.593651387902801 0 0 0
231 1 0.16665486330789978 9.378232513296812 12.595140276908781 0 0 0
233 1 3.343221816127356 9.380508242933102 12.592263928453685 0 0 0
25 1 6.515569223992595 9.383624445521294 12.590188825839103 0 0 -1
208 1 1.756095598581911 10.960912821849123 11.011714550983017 0 0 0
243 1 0.16590165843282093 12.535495180938824 12.598021270417926 0 0 0
200 1 4.938412014640529 10.971853994375167 11.010212150107508 0 0 0
143 1 3.346230341514724 12.540616273858946 12.592815259658783 0 0 -1
245 1 6.530020047437982 12.561952067545922 12.570670790187203 0 0 0
217 1 1.7550688066516247 14.11816171379788 11.013406808976068 0 0 0
223 1 0.21137008254453643 15.69845298060216 12.602612493811883 1 -1 0
79 1 3.357771963621572 15.703182639594123 12.597078887853147 0 -1 0
105 1 4.910995782405777 14.122210550444022 11.011138302037956 0 -1 0
244 1 6.530685342434039 15.682290565026062 12.576807565510705 0 0 0
5 1 4.935569694776056 1.4550649340508517 14.170122205686697 0 0 -1
110 1 1.7522879051085398 4.62486638630788 14.185437316698172 1 0 0
145 1 6.501211087462958 12.53987318051321 15.754321393067787 0 0 -1
114 1 4.929991491705526 4.6270390545886775 14.177112702958267 0 0 0
13 1 3.3433656784158226 3.0442979721851593 15.758290558843463 0 0 -1
15 1 6.514495656335308 3.0438794971009364 15.756561032002228 0 0 -1
122 1 1.7554773315698706 7.795512782752664 14.17739642434807 0 0 0
12 1 0.16810985609814688 6.210641626244765 15.760102162758725 0 0 -1
235 1 4.9311243836934535 7.79773234015446 14.171835832260575 0 0 0
127 1 3.3464640029789785 6.215600549940091 15.756700214976243 0 0 -1
135 1 6.519326336128461 6.212204030405604 15.752012698617277 0 0 -1
131 1 0.16795201518204117 9.375965305308291 15.757858585850869 0 0 -1
242 1 1.7630761383503946 14.118129509127092 14.180929155355571 0 0 0
158 1 6.524795332015111 9.38746250742726 15.735610610258336 0 0 -1
49 1 1.755276844435952 10.958901001179207 14.174939739972304 0 0 -1
150 1 0.16981115091924323 12.536534157823752 15.763596219392811 1 0 -1
234 1 4.933873854035666 10.969083532754658 14.1622366158092 0 0 0
142 1 3.341386544200508 12.5436371579581 15.755860298718952 0 0 -1
2 1 0.16192302767900163 3.0392774029165173 15.763199108230157 1 0 0
6 1 8.099474712639596 1.4629117585044127 1.515968884943393 0 0 0
8 1 11.269629001618737 1.4597331971905452 1.521277844222078 0 0 0
10 1 14.443133893831378 1.4568392937153045 1.5174892780494276 0 0 0
17 1 8.1056219543122 4.62583128625721 1.5116420935261203 0 0 0
18 1 11.275589033112876 4.625825127929706 1.5165559188502429 0 0 0
20 1 14.448311122628535 4.625972947276427 1.5150600673694943 0 0 0
128 1 8.112076097716555 7.79180742957455 1.5056243226162407 0 0 0
229 1 11.2806012727018 7.791401822828788 1.5138261132442261 0 0 1
130 1 14.449993245679401 7.79302697211131 1.5143311545413907 0 0 0
136 1 8.134472094089404 10.993413161570937 1.4810853759214733 0 0 0
137 1 11.285783826229615 10.958743130397924 1.5154459782356875 0 0 0
164 1 14.449469831011214 10.958836549218907 1.5158749743447129 0 0 0
112 1 8.099483280946554 14.133829355578829 1.5193510465471534 0 0 0
224 1 11.26339277002472 14.113935617122133 1.535331093824558 0 -1 0
101 1 14.446631821449897 14.119563880593278 1.5213969984208922 -1 -1 1
54 1 8.102654150989995 1.462684292799691 4.685424160402122 0 0 0
44 1 11.272765779741144 1.461898946568655 4.684426089111667 0 0 0
56 1 14.448753118418297 1.4622652807700216 4.672878650114219 -1 0 0
42 1 9.68874360124775 3.044957128094869 3.1003429220217598 0 0 0
64 1 8.107549715999907 4.6301753188174555 4.678190539775914 0 0 0
36 1 12.860252780320954 3.043485833886284 3.098268728052994 -1 0 0
92 1 11.273881893241384 4.62704368125807 4.681917936261216 0 0 0
65 1 14.44315300075589 4.6266749488736325 4.677336477927866 0 0 0
88 1 9.695477530227839 6.2115930350635935 3.0950847868233335 0 0 0
161 1 8.125303415580234 7.815280440155813 4.661919615261264 0 0 0
50 1 12.862527523024857 6.209521165866818 3.0978464853670995 0 0 0
181 1 11.279465025177775 7.7957246257163275 4.680791811289018 0 0 0
155 1 14.438750049665552 7.797107292027454 4.679147298341575 0 0 0
55 1 9.710290415521506 9.38563780075613 3.0904057072406386 0 0 0
154 1 12.865679018842004 9.377223813161773 3.0983753620162675 0 0 0
66 1 9.688666291375915 12.541027181394936 3.1113664963854846 0 0 0
172 1 8.111850662440553 10.96977596817769 4.686952631299923 0 0 0
162 1 11.280454906512308 10.960858016928885 4.686289350049534 0 0 0
138 1 12.86341444997016 12.53989411982155 3.1039377675789277 0 0 0
165 1 14.45014232136954 10.960168281500541 4.683462405301432 0 0 0
32 1 9.686235204223282 15.708214261197817 3.105096928393923 0 -1 0
171 1 8.102895958092727 14.128887557178206 4.684328053328204 0 0 0
103 1 12.858590294063783 15.703022310467485 3.102511338402093 -1 -2 0
30 1 11.272941104079743 14.122525912322454 4.687940136717118 0 0 0
197 1 14.448710463479882 14.121775858194129 4.682785377244665 0 -1 0
239 1 14.453112966411362 1.4673467584329658 7.7918681947616575 0 0 0
59 1 9.686135757626653 3.0431769793059535 6.2673295753381435 0 0 0
149 1 8.105944630440028 4.630581928158787 7.843338806233829 0 0 -1
60 1 12.85361808310162 3.0417492572071136 6.26294236733845 0 0 0
74 1 11.265541729220317 4.621615815027801 7.852210957668118 0 0 0
179 1 8.108218764872754 7.800208741925562 7.846110135032057 0 0 0
175 1 9.691149261765812 6.214711650319125 6.261391617761426 0 0 0
43 1 12.85128249303559 6.2085496805944045 6.267152530435861 0 0 0
33 1 12.855798863998189 15.700547479672906 6.257791848815815 0 -1 0
118 1 9.694755133950043 9.382600317365428 6.266398801881471 0 0 0
194 1 12.860882330962097 9.379197860010306 6.267909270117854 0 0 0
184 1 9.689366827172886 12.54201412515795 6.272794826287997 0 0 0
163 1 12.860704659123295 12.540685872959765 6.268541552809839 0 0 0
195 1 14.44755320542681 10.959659248070915 7.849064736775301 0 0 0
69 1 9.686619196342573 15.706354983964692 6.272297670874945 0 -1 0
198 1 8.1005098284598 14.124267384104936 7.831373581121683 0 0 0
16 1 14.444572731799626 14.116508126731803 7.847476212314825 0 0 0
203 1 14.443482852150753 7.7988596280706695 7.848296478835132 0 0 0
189 1 11.273784219144634 7.79554610152498 7.848144699347056 0 0 0
31 1 8.10182958071912 1.451038095393225 7.858943643876434 0 0 0
91 1 11.25958148862625 1.4514850788358113 7.854881756958947 0 0 0
214 1 11.268196722991487 10.965658213901786 7.8564884127756205 0 0 0
199 1 11.256865995132854 14.11555195628631 7.852243304984846 0 0 0
206 1 14.397572734070986 4.600466933600425 7.8744460082423196 0 0 0
193 1 8.106226389817158 10.974803502872913 7.860775380535613 0 0 0
141 1 14.445377877547587 10.953876897447453 14.1798455675158 -1 0 -1
246 1 8.078154317199218 14.111583254226705 14.209407271585382 0 0 0
53 1 9.683566401422146 3.032055805447956 9.435694316894203 0 -1 0
94 1 12.822820653346353 3.0132294144672436 9.45913179807567 0 0 0
86 1 15.433653327252424 2.4413433569234364 10.037117318844805 -1 0 0
238 1 11.256503361005851 10.947880437080583 14.178037843574414 0 0 0
99 1 9.687888284452884 6.209749482200983 9.429128978403165 0 0 0
100 1 12.854842572343607 6.214238040643882 9.430942790961225 0 0 0
241 1 14.465191113655855 14.10514667102516 14.192951111660902 0 0 0
119 1 9.689433910321743 9.381266834700684 9.429143971251422 0 0 0
73 1 12.858650116216504 9.37914001042679 9.43175659063115 0 0 0
221 1 9.664557787973436 12.557613354573505 9.447855978832944 0 0 0
250 1 12.83725012444099 15.68203401233637 15.775855294628636 0 0 0
213 1 12.851598022625252 12.535149690255786 9.432520288282912 0 0 0
115 1 11.119851726603164 13.987501294381051 14.288388223744784 0 0 0
82 1 9.660466551914997 15.679708293545623 9.45006601607281 0 -1 0
84 1 12.840026410354492 15.68999890552678 9.384247956749581 0 -1 0
29 1 9.687721471509068 9.367198673716542 15.756442168515008 0 0 0
107 1 8.096829530409916 1.4744450567684477 11.01499842776999 0 0 0
120 1 11.237620637090806 1.4169682749561976 11.04371541545592 0 0 0
188 1 14.01848512523035 1.0302887926821012 11.428791710138814 0 0 0
81 1 8.101986344306422 4.6273121244616355 11.011748029719616 0 0 0
106 1 9.680607661322288 3.0348523226031485 12.598656358213342 0 0 0
23 1 12.84797984836391 3.0796367094175854 12.605568440322115 0 0 0
93 1 11.267500301525912 4.623852346654464 11.015161145829413 0 0 0
96 1 14.45422875946179 4.686755590128579 11.006577759160889 -1 0 0
104 1 8.102885864736596 7.791703889325015 11.010199483540012 0 0 0
124 1 9.687032723957637 6.208318879192674 12.593494389991534 0 0 0
183 1 12.857060183645562 6.2193368002866904 12.598161396729164 0 0 1
204 1 11.272300001939024 7.794550397571896 11.011734827715948 0 0 0
89 1 14.448874965718076 7.803988214838102 11.011540514613957 0 0 0
237 1 9.68615274899828 9.376532294259542 12.591498217528223 0 0 0
230 1 12.856818797017711 9.375527740556434 12.595517102221743 0 0 0
211 1 8.099295572173803 10.940407740907995 11.008674682283722 0 0 0
247 1 9.652050491553142 12.550935881961731 12.56675723990429 0 0 0
205 1 11.260560663902535 10.963566079498797 11.013205469885401 0 0 0
240 1 12.834145294932126 12.52286144109785 12.615804190748564 0 0 0
215 1 14.44204098230128 10.957907367533856 11.016873957952741 0 0 0
7 1 9.630979500994718 15.65829810680389 12.59159799319269 0 -1 -1
58 1 12.600678793583354 15.44470972168249 12.87008697557775 0 0 0
249 1 11.276346381619305 14.108858924687532 11.004382823091785 0 0 0
108 1 14.42164812681676 14.10037523073034 11.040891524587966 0 0 0
219 1 8.092446704647537 1.4502697562773268 14.171144048183509 0 0 0
85 1 11.24325340929064 1.4644929351527258 14.188664663630863 0 0 0
228 1 14.417751352977369 1.431704388126998 14.197222369366928 0 0 0
146 1 9.681082716574226 3.0447596356602102 15.762542803845307 0 1 -1
153 1 8.100237687813134 4.624565593852087 14.174532518348128 0 0 0
225 1 12.85459514201492 3.039169775828585 15.762717689213748 0 1 0
117 1 11.267663540695036 4.630231181790801 14.182306238335514 0 0 0
95 1 14.445458116736932 4.627406256782952 14.182654754149066 0 0 0
28 1 9.689343343199852 6.2083999293645595 15.757197674506033 0 0 -1
202 1 8.103222583980624 7.793368497800102 14.169621828868722 0 0 0
21 1 12.862260417647182 6.208775207726863 15.76012916027812 -1 0 -1
173 1 11.273500719277234 7.791456770315255 14.176633216781354 0 0 0
226 1 14.44848547529869 7.793785872772112 14.177895589708085 -1 0 0
109 1 9.676198834266678 15.706801941606649 15.764258571970895 0 -1 0
139 1 12.861711989236143 9.37381561029099 15.758410361052954 0 0 -1
236 1 8.09989604054278 10.969224815992131 14.15460812577434 0 0 0
148 1 12.858787361707412 12.536669907942521 15.763366489791965 0 0 -1
147 1 9.64662703832855 12.499218108869192 15.795543795175538 0 0 -1

Velocities

11 0 0 0
4 0 0 0
180 0 0 0
14 0 0 0
126 0 0 0
132 0 0 0
207 0 0 0
134 0 0 0
46 0 0 0
83 0 0 0
52 0 0 0
185 0 0 0
37 0 0 0
38 0 0 0
116 0 0 0
39 0 0 0
40 0 0 0
157 0 0 0
151 0 0 0
47 0 0 0
48 0 0 0
156 0 0 0
22 0 0 0
212 0 0 0
160 0 0 0
166 0 0 0
176 0 0 0
170 0 0 0
232 0 0 0
45 0 0 0
26 0 0 0
167 0 0 0
169 0 0 0
192 0 0 0
159 0 0 0
71 0 0 0
57 0 0 0
41 0 0 0
75 0 0 0
62 0 0 0
152 0 0 0
63 0 0 0
61 0 0 0
177 0 0 0
51 0 0 0
19 0 0 0
174 0 0 0
34 0 0 0
182 0 0 0
121 0 0 0
9 0 0 0
78 0 0 0
196 0 0 0
191 0 0 0
97 0 0 0
72 0 0 0
80 0 0 0
227 0 0 0
186 0 0 0
210 0 0 0
1 0 0 0
144 0 0 0
70 0 0 0
35 0 0 0
27 0 0 0
90 0 0 0
222 0 0 0
133 0 0 0
187 0 0 0
178 0 0 0
98 0 0 0
190 0 0 0
248 0 0 0
209 0 0 0
216 0 0 0
218 0 0 0
220 0 0 0
24 0 0 0
3 0 0 0
76 0 0 0
68 0 0 0
77 0 0 0
67 0 0 0
87 0 0 0
111 0 0 0
102 0 0 0
140 0 0 0
168 0 0 0
125 0 0 0
201 0 0 0
123 0 0 0
113 0 0 0
129 0 0 0
231 0 0 0
233 0 0 0
25 0 0 0
208 0 0 0
243 0 0 0
200 0 0 0
143 0 0 0
245 0 0 0
217 0 0 0
223 0 0 0
79 0 0 0
105 0 0 0
244 0 0 0
5 0 0 0
110 0 0 0
145 0 0 0
114 0 0 0
13 0 0 0
15 0 0 0
122 0 0 0
12 0 0 0
235 0 0 0
127 0 0 0
135 0 0 0
131 0 0 0
242 0 0 0
158 0 0 0
49 0 0 0
150 0 0 0
234 0 0 0
142 0 0 0
2 0 0 0
6 0 0 0
8 0 0 0
10 0 0 0
17 0 0 0
18 0 0 0
20 0 0 0
128 0 0 0
229 0 0 0
130 0 0 0
136 0 0 0
137 0 0 0
164 0 0 0
112 0 0 0
224 0 0 0
101 0 0 0
54 0 0 0
44 0 0 0
56 0 0 0
42 0 0 0
64 0 0 0
36 0 0 0
92 0 0 0
65 0 0 0
88 0 0 0
161 0 0 0
50 0 0 0
181 0 0 0
155 0 0 0
55 0 0 0
154 0 0 0
66 0 0 0
172 0 0 0
162 0 0 0
138 0 0 0
165 0 0 0
32 0 0 0
171 0 0 0
103 0 0 0
30 0 0 0
197 0 0 0
239 0 0 0
59 0 0 0
149 0 0 0
60 0 0 0
74 0 0 0
179 0 0 0
175 0 0 0
43 0 0 0
33 0 0 0
118 0 0 0
194 0 0 0
184 0 0 0
163 0 0 0
195 0 0 0
69 0 0 0
198 0 0 0
16 0 0 0
203 0 0 0
189 0 0 0
31 0 0 0
91 0 0 0
214 0 0 0
199 0 0 0
206 0 0 0
193 0 0 0
141 0 0 0
246 0 0 0
53 0 0 0
94 0 0 0
86 0 0 0
238 0 0 0
99 0 0 0
100 0 0 0
241 0 0 0
119 0 0 0
73 0 0 0
221 0 0 0
250 0 0 0
213 0 0 0
115 0 0 0
82 0 0 0
84 0 0 0
29 0 0 0
107 0 0 0
120 0 0 0
188 0 0 0
81 0 0 0
106 0 0 0
23 0 0 0
93 0 0 0
96 0 0 0
104 0 0 0
124 0 0 0
183 0 0 0
204 0 0 0
89 0 0 0
237 0 0 0
230 0 0 0
211 0 0 0
247 0 0 0
205 0 0 0
240 0 0 0
215 0 0 0
7 0 0 0
58 0 0 0
249 0 0 0
108 0 0 0
219 0 0 0
85 0 0 0
228 0 0 0
146 0 0 0
153 0 0 0
225 0 0 0
117 0 0 0
95 0 0 0
28 0 0 0
202 0 0 0
21 0 0 0
173 0 0 0
226 0 0 0
109 0 0 0
139 0 0 0
236 0 0 0
148 0 0 0
147 0 0 0
