LAMMPS data file via write_data, version 22 Jul 2025, timestep = 17433, units = metal

250 atoms
1 atom types

-0.021139721194165784 15.847117721194172 xlo xhi
0 15.825978000000001 ylo yhi
0 15.825978000000001 zlo zhi

Masses

1 183.841

Atoms # atomic

4 1 4.8671799861982326 1.5503207812600195 1.563540855213431 0 0 0
12 1 1.6821214876558983 4.716588084651974 1.553081231297576 0 0 0
14 1 4.864101523852783 4.714127767880255 1.563348590879421 0 0 0
11 1 1.6888166283542276 1.5633552356694835 1.5437181781205553 0 0 0
178 1 4.868641448025874 7.885143160801296 7.892029698896007 0 0 0
126 1 1.6842630885317809 7.870140669165737 1.5548822234678354 0 0 0
132 1 4.858647993980954 7.875409763325686 1.5606531889952227 0 0 0
191 1 1.6967971753957154 11.035384434983001 7.898328923248547 0 0 0
80 1 4.873170118616179 14.214746052488724 7.899201709660621 0 -1 0
46 1 1.7022765934608195 11.044682521499253 1.5629792627105867 -1 0 0
134 1 4.863463831536481 11.040457664192013 1.5577048198989685 0 0 0
142 1 1.698704615078615 14.213298740185163 1.5569253557577267 0 0 0
144 1 4.867553685659243 14.21092739500917 1.562299280650942 0 0 0
52 1 1.7041745612444552 1.5626816541803796 4.684670537914942 0 0 0
58 1 4.87304445192411 1.5555696818236737 4.729989347570984 0 0 0
38 1 0.10935475508443504 3.1394280736590074 3.13756076431257 0 0 0
37 1 1.6968958443691289 4.720901486671396 4.7283021263936 0 0 0
39 1 4.87211636674067 4.720381183673481 4.725055498105078 0 0 0
185 1 3.2844418539344833 3.1406114650203873 3.1374429624662232 0 1 0
40 1 6.455982064301575 3.1327558421422124 3.145005491513722 0 0 0
180 1 0.10680904638617483 6.296541921727392 3.1396112195482804 0 0 0
151 1 1.693930852664505 7.8782896703777165 4.726768153258186 1 0 0
47 1 3.2771820836089134 6.297329056508053 3.1436948188022114 0 0 0
152 1 4.865894485117931 7.880652587649415 4.7263537492653676 0 0 0
48 1 6.451155512683035 6.293994961110854 3.1449504252512783 0 0 0
156 1 0.11046739676476182 9.454109451702902 3.142727420680618 0 0 0
22 1 3.2787880417901816 9.459442715148658 3.1425553675644617 0 0 0
160 1 6.448679163958704 9.457558081304514 3.141381395005526 0 0 0
157 1 1.698963914535505 11.04003474994896 4.727593385142446 0 0 0
166 1 0.15619102598465567 12.653007900281064 3.1689377351734858 0 0 0
170 1 4.86765174705873 11.045010191510382 4.726600390311272 0 0 0
232 1 3.288444420018764 12.6315658135281 3.147987388470172 0 0 0
45 1 6.450347037454522 12.622788054784277 3.1395237604294635 0 0 0
26 1 0.09883905147241814 15.791197478770936 3.0811394586609837 0 -1 0
167 1 1.7298216812642786 14.237825645598235 4.753345928670079 0 0 0
169 1 3.2842851302896814 15.798420572940909 3.1424501493602817 0 0 0
192 1 4.8716575673506215 14.217131079425002 4.733027869803977 0 0 0
159 1 6.454135687262258 15.79447905762706 3.145527879131546 0 -1 0
51 1 0.5293917264352624 0.3917302569641952 6.735350191053047 0 0 0
196 1 3.3032451607959787 15.824845648586791 6.341126189137773 0 0 0
56 1 0.13678615415012044 3.1543385041825855 6.3401080594674255 0 0 0
57 1 3.2985668265697146 3.151683725906852 6.300130406200679 0 0 0
72 1 4.877389631718138 4.725043831666961 7.893039911816202 0 0 0
41 1 6.462111473054551 3.137541182029733 6.312050297205877 0 0 0
61 1 0.11204218742121601 6.299947748121473 6.315466870620401 0 0 0
186 1 1.6951136913999576 7.8829337790695835 7.897894374931605 0 0 0
62 1 3.2839571085198758 6.303789607364606 6.312357196502779 0 0 0
63 1 6.456200985879789 6.298901187947883 6.308739833347124 0 0 0
176 1 0.10567880516000261 9.451867331715441 6.309980889995689 0 0 0
177 1 3.281265425969005 9.462756900826403 6.3103834019929375 0 0 0
161 1 6.453427567570936 9.463362687079973 6.309064183643032 0 0 0
174 1 0.1007811482946026 12.56933408724872 6.304576336303417 1 0 0
210 1 4.868337451094277 11.04665660589062 7.893365951581481 0 0 0
182 1 3.286479120229569 12.627854948205343 6.313319697428458 0 0 0
9 1 6.4541406862974 12.629175178566616 6.310987497795165 0 -1 0
53 1 6.457765772300347 15.79903557402875 6.315700864986544 0 -1 0
97 1 1.705885130343228 14.170426576762342 7.906870445215176 0 0 0
35 1 1.9553865597887605 1.8161417272912241 8.156236705632477 0 0 0
24 1 0.13505574464727002 0.0009248563810553373 9.502022070110486 0 0 -1
3 1 3.279477310051197 15.796008137617347 15.805545707724283 0 -1 -1
86 1 0.09687872479563503 3.1497031275080714 9.500962600770167 0 0 0
242 1 1.6930365906873688 14.214380306550769 14.22308747984322 0 0 0
66 1 3.4068386321008277 3.268233399229902 9.61384031053027 0 0 0
90 1 6.477780019456423 3.1433818132707527 9.487329775802875 0 0 0
96 1 0.108305255359696 6.303362031425891 9.487022022267716 0 0 0
183 1 3.2801375889086897 12.62801560808928 15.804833789284654 0 0 0
187 1 3.2874660364582726 6.316851241708021 9.488474920790027 0 0 0
98 1 6.456136231721242 6.29846365532314 9.466418036676716 0 0 0
206 1 0.1050063661090943 9.46059333276654 9.480607363994311 0 0 0
208 1 3.2787844567768634 9.46421648182054 9.479476016675065 0 0 0
175 1 6.453169643421589 9.464615007127883 9.471464036651962 0 0 0
216 1 0.10870796688126218 12.628132187798231 9.483534079221528 0 0 0
143 1 1.6908366882383383 11.043827574380854 14.222474735207836 0 0 -1
218 1 3.2864055340834666 12.623492560935198 9.483799905314104 0 0 0
220 1 6.455979337040728 12.6290890405763 9.476176878435872 0 0 0
234 1 4.859496668568012 11.04376528232375 14.219624970854072 0 0 0
1 1 0.10595203820285058 15.800206322804025 15.79593306851111 0 -1 -1
76 1 3.2962443112979587 15.787876603297557 9.497042040388846 0 -1 0
68 1 6.461985482067683 15.795941865724341 9.481492440464267 0 -1 0
77 1 1.7052277632549475 1.5812668856592105 11.091847521761622 0 0 0
79 1 4.876433567629738 1.5497273125890214 11.07025484814234 0 0 0
87 1 1.6801361038430276 4.7248991921305 11.081273457803745 0 0 0
111 1 0.08733669358126529 3.159448199010577 12.671494960642745 0 0 0
89 1 4.905149190774351 4.755265808268569 11.100430733314031 0 0 0
104 1 3.2842175297256526 3.142909239456071 12.662756873250014 0 0 0
115 1 6.456345743132268 3.121912877136843 12.642440465132866 0 0 0
121 1 0.0849547226738791 6.27714734461551 12.664258053822126 0 0 0
201 1 1.6828975822870547 7.877102600972693 11.069127317731882 0 0 0
122 1 3.263117653470672 6.298080549991425 12.641943960433629 0 0 0
123 1 4.864892236545258 7.890880711727691 11.059176056330198 0 0 0
135 1 6.420281876723152 6.2632301892200894 12.606418271373501 0 0 -1
231 1 0.10480944913984279 9.457276927426712 12.640520310364378 0 0 0
233 1 3.2716686202920533 9.462984139235981 12.640920344049205 0 0 0
203 1 6.443684985195868 9.46451920682937 12.63147339568132 0 0 0
243 1 1.6915118170856873 11.045654653345297 11.061187765842439 0 0 0
241 1 0.10664105015159797 12.629416232384907 12.641013149295127 0 0 0
207 1 3.278490936707952 12.629564271518925 12.642934475701598 0 0 0
209 1 4.865441897708697 11.047109071993221 11.058187125779463 0 0 0
245 1 6.4508996668932985 12.62914447342748 12.638025567581954 0 0 0
168 1 0.11111450232901376 15.805567385994886 12.644873083414366 0 -1 0
217 1 1.6972329638958774 14.216308677411094 11.065980240419018 0 0 0
103 1 3.282268047732491 15.798068858505461 12.649694887213201 0 -1 0
105 1 4.871740130457191 14.21011352485478 11.06445048803327 0 -1 0
244 1 6.456259706955863 15.792713343796622 12.643384397370802 0 0 0
102 1 1.685161282515092 1.5644441500969826 14.227987694870503 0 0 0
5 1 4.8671863236716835 1.549722402225328 14.229580423704773 0 0 -1
113 1 1.7099122463305796 4.717062679123635 14.230027559466041 0 0 0
27 1 4.865850454619913 14.21098584944603 14.22493835599188 0 0 0
114 1 4.868294420707311 4.714861905979864 14.235341743577788 0 0 0
226 1 1.678242935230203 7.868120799608435 14.223133225101044 0 0 0
21 1 0.08570877385479372 6.274550102784434 15.786418007609544 0 0 -1
235 1 4.841878768823709 7.869641863940869 14.214503458098324 0 0 0
131 1 0.11518613250994489 9.451939535441014 15.80208598993201 0 0 -1
133 1 3.272544549029766 9.45825157354399 15.802737543150682 0 0 -1
158 1 6.429631405103677 9.440928159985738 15.78457510277885 0 0 -1
146 1 6.453544948626296 15.79304531508447 15.806886887897543 0 0 -1
110 1 0.08655693965016588 3.1562553983730663 15.784906402460466 1 0 0
49 1 0.111681266747605 12.62818971555811 15.800541302686248 0 0 -1
145 1 6.448705751403965 12.62524986622104 15.801521817571906 0 0 -1
13 1 3.2756612147464335 3.1340731483454984 15.809780295335974 0 0 -1
15 1 6.453401647475089 3.127354586026323 15.808926235103792 0 0 -1
23 1 6.443846660685014 6.287757166540247 15.809042045642963 0 0 -1
127 1 3.2687918121421844 6.296116816710274 15.808740258273229 0 0 -1
71 1 1.713878912297955 4.73549932030776 7.917643905745886 0 0 0
67 1 4.890013124061901 1.573578060341634 7.916601161831498 0 0 0
6 1 8.04236272873071 1.5509184134138216 1.5622635767996311 0 0 0
8 1 11.224872340807439 1.5704752123749413 1.5537177146911088 0 0 0
10 1 14.38902322146722 1.568932400730254 1.5450957716976133 0 0 0
16 1 8.040490422833752 4.70974991044226 1.5593298725119165 0 0 0
18 1 11.222077756916987 4.713223071485542 1.5460965542700613 0 0 0
20 1 14.3884153374318 4.715915705137016 1.578028761564045 0 0 0
128 1 8.02828015407285 7.865233277598825 1.5655654353760498 0 0 0
129 1 11.197385491590333 7.847648021352619 1.5236977252531043 0 0 0
130 1 14.389368217022698 7.862072206192701 1.5485093447474798 0 0 0
136 1 8.020028320322568 11.014915775934739 1.5320066086253734 0 0 0
137 1 10.799174923488831 10.634177361953887 1.1520873190201129 0 0 0
138 1 12.213684359791483 12.037421610014016 2.554295244817213 0 0 0
140 1 14.448297518143027 11.048064552432583 1.5667362723857845 0 0 0
112 1 8.036426661095783 14.212157422189907 1.5600034949726458 0 0 0
148 1 11.222207796249526 14.271927853591597 1.5675465767456063 0 0 0
150 1 14.365259313482435 14.190994304246153 1.5105232093159766 0 0 0
54 1 8.041755484258374 1.5521931765391093 4.727540189208919 0 0 0
44 1 11.211288449440344 1.5573483776206902 4.725721757174358 0 0 0
224 1 12.827420473432435 0.023858068431676278 3.164702204596178 0 0 0
36 1 14.413947034365245 1.588372229528607 4.749636494341051 -1 0 0
42 1 9.630336009389541 3.1355378035958625 3.1415615534119508 0 0 0
64 1 8.043817240167213 4.71467495307834 4.725859342082853 0 0 0
227 1 12.80543062921913 3.1420135105992775 3.1407317110890527 0 0 0
43 1 11.217364188594372 4.716001393494861 4.723850467041161 0 0 0
65 1 14.394378507059544 4.719131494913122 4.733535102146237 0 0 0
88 1 9.62683446770237 6.291141345180592 3.1387583734262283 0 0 0
153 1 8.035780601556803 7.87282500441378 4.731697794569454 0 0 0
50 1 12.797571498914635 6.2931015628260125 3.1328454497678786 0 0 0
154 1 11.214445749041804 7.872525148492378 4.726214783496281 0 0 0
155 1 14.385766073977708 7.87003406893984 4.722227826765995 0 0 0
55 1 9.61725503227244 9.446371942171334 3.184674073876833 0 0 0
164 1 12.778048321854875 9.424466218486378 3.1166246419919585 0 0 0
19 1 8.036093837359209 11.042525796614681 4.727746849773421 0 0 0
172 1 9.594701952662152 12.60171316213453 3.1182110793170876 0 0 0
162 1 11.220494267497212 11.049645738946687 4.786258998198787 0 0 0
165 1 14.365030992029517 10.995610802366969 4.703442763060662 0 0 0
32 1 9.62518267843413 15.80120297065368 3.14232802803135 0 -1 0
171 1 8.033665208043823 14.208242788089665 4.724130540436894 0 0 0
30 1 11.16443509377493 14.187509838735295 4.702957948757608 0 0 0
197 1 13.599676494607428 13.429269846859322 3.942035891260767 0 -1 0
92 1 8.048729240089196 4.717230489907588 7.891858246591142 0 0 0
59 1 9.630666097673865 3.1348517064727686 6.30982107831017 0 0 0
60 1 12.801631120627821 3.138478655654222 6.312307555209993 0 0 0
179 1 8.041992702876145 7.87886926700618 7.8905009777309285 0 0 0
181 1 9.630961390759138 6.295854385915032 6.308640439106194 0 0 0
73 1 12.803536487575808 6.296638117440606 6.310305590574268 0 0 0
118 1 9.625424889068787 9.457734387526077 6.320335409175025 0 0 0
194 1 12.802365679738664 9.455720134101488 6.315353624532778 0 0 0
184 1 9.623060802536509 12.62773240169501 6.3158247224689195 0 0 0
193 1 8.04107775052986 11.045322247931852 7.893809700500614 0 0 0
163 1 12.825819990122692 12.65178279815321 6.361923244549193 0 0 0
34 1 9.619119420284287 15.7934759230724 6.309723662804163 0 -1 0
33 1 12.743441669316454 15.78602335639292 6.301744125964979 0 -1 0
78 1 14.992489698202371 14.81376010804648 5.326683579843666 0 -1 0
74 1 11.21919493831331 4.71628850502152 7.89463559002924 0 0 0
199 1 11.211101210638931 14.21177871617092 7.900255393844336 0 0 0
69 1 11.207393297527389 1.5543927298442155 7.898498329895093 0 0 0
190 1 14.38942528500573 7.877400299309849 7.897003973037263 0 0 0
75 1 14.391908292021853 4.720405188609743 7.897394228892751 0 0 0
189 1 11.217310333430747 7.877454308463407 7.8946074363605945 0 0 0
198 1 8.041705612250134 14.212097582653714 7.89548916377662 0 0 0
195 1 14.388972533582931 11.039691092224862 7.90036990052335 0 0 0
222 1 11.216900087465156 11.04521159235302 7.904487090309726 0 0 0
31 1 8.047221028093052 1.5534111326534026 7.896640548979751 0 0 0
239 1 14.345773007836769 1.5630544082555193 7.907190889956749 0 0 0
236 1 8.026345761165922 11.049165100054617 14.209354412600145 0 0 0
248 1 11.21481761423095 14.213972044543054 14.217768313418064 0 0 0
7 1 9.627496280029659 15.806084744973777 15.800780571806323 0 -1 -1
81 1 9.636034808830779 3.1349524563551325 9.479532297962908 0 0 0
94 1 12.797461242125655 3.1392494799412436 9.489243668301096 0 0 0
101 1 14.385563868702832 14.207662895338846 14.215808736768006 -1 -1 0
246 1 8.035840087217531 14.216221419064341 14.21729858375463 0 0 0
99 1 9.634153675695075 6.294782007674613 9.473404391732661 0 0 0
100 1 12.803776592191142 6.297786419463097 9.481527822849085 0 0 0
141 1 14.38849755768705 11.04302616953815 14.218539438800969 -1 0 -1
139 1 12.838203690183017 9.443908904529003 15.795357322717303 0 0 -1
119 1 9.629135698638647 9.457953957917823 9.475186892451978 0 0 0
214 1 12.803160809566066 9.458742448941685 9.479961171851954 0 0 0
223 1 9.628555954253487 12.627458290741199 9.478347892666946 0 0 0
213 1 12.805602875421304 12.631167387398905 9.486078943034922 0 0 0
173 1 11.24402648130505 7.846544588906261 14.203622436519884 0 0 0
29 1 9.395012871162558 9.198971242889879 15.541535667805155 0 0 0
82 1 9.632120728535575 15.795347845160444 9.480306209349472 0 -1 0
238 1 11.188275954180634 11.013126978116002 14.203214460541464 0 0 0
84 1 12.802852576446876 15.798175452760157 9.484934457218367 0 -1 0
200 1 14.394610723796607 7.888253983476616 14.217899709883849 0 0 0
228 1 12.822211458967693 3.1563511612695003 15.78307495657994 0 0 0
219 1 8.049852297567806 1.5488379256869094 11.061638307258178 0 0 0
83 1 11.225965502860307 1.5577686930882721 11.068915113264005 0 0 0
188 1 14.391064516369795 1.566598244220072 11.077077541824618 0 0 0
2 1 14.389043633316579 1.5367948987789826 14.222959339467957 0 0 0
120 1 9.63737567126116 3.127705117664131 12.639785711416996 0 0 0
91 1 8.056805666709423 4.715561939972553 11.060565615487302 0 0 0
85 1 12.823149289120579 3.1531912634941097 12.663855742545076 0 0 0
93 1 11.228621912499388 4.714006766774306 11.068979423508681 0 0 0
95 1 14.387099448069327 4.719311563345192 11.047806359467165 0 0 0
124 1 9.636991256666246 6.289415936278481 12.63319237386135 0 0 0
25 1 8.034993629765165 7.870670422934171 11.03952267900625 0 0 -1
125 1 12.8262312174843 6.269452218938096 12.657646036853658 0 0 0
204 1 11.22310373705898 7.867064808311489 11.060838507659174 0 0 0
205 1 14.388091414241424 7.869269766017914 11.06947148307059 0 0 0
237 1 9.611173445919254 9.437815366813904 12.623031990943653 0 0 0
230 1 12.80058824769918 9.451429053690195 12.636025666231522 0 0 0
211 1 8.03876459390396 11.042985718630659 11.053800908722549 0 0 0
247 1 9.625079330359345 12.624388250276336 12.63692937294443 0 0 0
212 1 11.211991918454821 11.03853429403884 11.058074657747994 0 0 0
240 1 12.796869360482445 12.622836799276945 12.6378385292025 0 0 0
215 1 14.387704327230216 11.04317870389771 11.061388659476831 0 0 0
107 1 9.632364506698059 15.794423305308042 12.641629105746114 0 -1 0
221 1 8.043728614275443 14.210495166843286 11.058977175888081 0 0 0
249 1 11.216568028644069 14.211599464272856 11.061033764038747 0 0 0
225 1 12.803462994756607 15.800329550551899 12.641409049864576 0 0 0
108 1 14.393978291741774 14.219043119764697 11.065016081362337 0 0 0
106 1 8.0436321343701 1.5482799130427751 14.223110425717945 0 0 0
109 1 11.227018197106853 1.5613947141653193 14.222127607772745 0 0 0
147 1 9.616709601243883 12.6701980257833 15.79254128318964 0 0 -1
116 1 8.032006390998228 4.69535062506214 14.215115229757176 0 0 0
229 1 12.821793619544948 6.267815021524943 15.780224054713804 0 0 0
117 1 11.196204717071048 4.708094441511304 14.219432982168968 0 0 0
250 1 12.801885739444856 15.805981304195164 15.799651293499014 0 0 0
28 1 9.615017875283574 6.2775218414614935 15.783566764482364 0 0 -1
17 1 9.632624478874536 3.1296635266752695 15.803427868252735 0 0 -1
149 1 12.776664924999976 12.603329480959045 15.77167568898347 0 0 -1
202 1 7.914425614981176 7.754335791322327 14.099462327553322 0 0 0
70 1 14.414237511664904 14.23739062440046 7.929700641942768 0 -1 0

Velocities

4 0 0 0
12 0 0 0
14 0 0 0
11 0 0 0
178 0 0 0
126 0 0 0
132 0 0 0
191 0 0 0
80 0 0 0
46 0 0 0
134 0 0 0
142 0 0 0
144 0 0 0
52 0 0 0
58 0 0 0
38 0 0 0
37 0 0 0
39 0 0 0
185 0 0 0
40 0 0 0
180 0 0 0
151 0 0 0
47 0 0 0
152 0 0 0
48 0 0 0
156 0 0 0
22 0 0 0
160 0 0 0
157 0 0 0
166 0 0 0
170 0 0 0
232 0 0 0
45 0 0 0
26 0 0 0
167 0 0 0
169 0 0 0
192 0 0 0
159 0 0 0
51 0 0 0
196 0 0 0
56 0 0 0
57 0 0 0
72 0 0 0
41 0 0 0
61 0 0 0
186 0 0 0
62 0 0 0
63 0 0 0
176 0 0 0
177 0 0 0
161 0 0 0
174 0 0 0
210 0 0 0
182 0 0 0
9 0 0 0
53 0 0 0
97 0 0 0
35 0 0 0
24 0 0 0
3 0 0 0
86 0 0 0
242 0 0 0
66 0 0 0
90 0 0 0
96 0 0 0
183 0 0 0
187 0 0 0
98 0 0 0
206 0 0 0
208 0 0 0
175 0 0 0
216 0 0 0
143 0 0 0
218 0 0 0
220 0 0 0
234 0 0 0
1 0 0 0
76 0 0 0
68 0 0 0
77 0 0 0
79 0 0 0
87 0 0 0
111 0 0 0
89 0 0 0
104 0 0 0
115 0 0 0
121 0 0 0
201 0 0 0
122 0 0 0
123 0 0 0
135 0 0 0
231 0 0 0
233 0 0 0
203 0 0 0
243 0 0 0
241 0 0 0
207 0 0 0
209 0 0 0
245 0 0 0
168 0 0 0
217 0 0 0
103 0 0 0
105 0 0 0
244 0 0 0
102 0 0 0
5 0 0 0
113 0 0 0
27 0 0 0
114 0 0 0
226 0 0 0
21 0 0 0
235 0 0 0
131 0 0 0
133 0 0 0
158 0 0 0
146 0 0 0
110 0 0 0
49 0 0 0
145 0 0 0
13 0 0 0
15 0 0 0
23 0 0 0
127 0 0 0
71 0 0 0
67 0 0 0
6 0 0 0
8 0 0 0
10 0 0 0
16 0 0 0
18 0 0 0
20 0 0 0
128 0 0 0
129 0 0 0
130 0 0 0
136 0 0 0
137 0 0 0
138 0 0 0
140 0 0 0
112 0 0 0
148 0 0 0
150 0 0 0
54 0 0 0
44 0 0 0
224 0 0 0
36 0 0 0
42 0 0 0
64 0 0 0
227 0 0 0
43 0 0 0
65 0 0 0
88 0 0 0
153 0 0 0
50 0 0 0
154 0 0 0
155 0 0 0
55 0 0 0
164 0 0 0
19 0 0 0
172 0 0 0
162 0 0 0
165 0 0 0
32 0 0 0
171 0 0 0
30 0 0 0
197 0 0 0
92 0 0 0
59 0 0 0
60 0 0 0
179 0 0 0
181 0 0 0
73 0 0 0
118 0 0 0
194 0 0 0
184 0 0 0
193 0 0 0
163 0 0 0
34 0 0 0
33 0 0 0
78 0 0 0
74 0 0 0
199 0 0 0
69 0 0 0
190 0 0 0
75 0 0 0
189 0 0 0
198 0 0 0
195 0 0 0
222 0 0 0
31 0 0 0
239 0 0 0
236 0 0 0
248 0 0 0
7 0 0 0
81 0 0 0
94 0 0 0
101 0 0 0
246 0 0 0
99 0 0 0
100 0 0 0
141 0 0 0
139 0 0 0
119 0 0 0
214 0 0 0
223 0 0 0
213 0 0 0
173 0 0 0
29 0 0 0
82 0 0 0
238 0 0 0
84 0 0 0
200 0 0 0
228 0 0 0
219 0 0 0
83 0 0 0
188 0 0 0
2 0 0 0
120 0 0 0
91 0 0 0
85 0 0 0
93 0 0 0
95 0 0 0
124 0 0 0
25 0 0 0
125 0 0 0
204 0 0 0
205 0 0 0
237 0 0 0
230 0 0 0
211 0 0 0
247 0 0 0
212 0 0 0
240 0 0 0
215 0 0 0
107 0 0 0
221 0 0 0
249 0 0 0
225 0 0 0
108 0 0 0
106 0 0 0
109 0 0 0
147 0 0 0
116 0 0 0
229 0 0 0
117 0 0 0
250 0 0 0
28 0 0 0
17 0 0 0
149 0 0 0
202 0 0 0
70 0 0 0
